<VTKFile type="UnstructuredGrid" version="1.0" byte_order="LittleEndian" header_type="UInt64">
<UnstructuredGrid>
<Piece NumberOfPoints="368" NumberOfCells= "640">
<Points>
<DataArray NumberOfComponents="3" type="Float64">
1.0 0.0 0.0 
0.0 1.0 0.0 
-1.0 0.0 0.0 
0.0 -1.0 0.0 
0.5 0.0 0.0 
0.0 0.5 0.0 
-0.5 0.0 0.0 
0.0 -0.5 0.0 
0.995184726651 0.0980171405408 0.0 
0.980785280308 0.195090322496 0.0 
0.956940335511 0.290284677984 0.0 
0.923879532096 0.382683433367 0.0 
0.881921263713 0.471396738015 0.0 
0.831469611372 0.555570234413 0.0 
0.773010452064 0.634393285746 0.0 
0.707106779519 0.707106782854 0.0 
0.63439328251 0.77301045472 0.0 
0.555570231508 0.831469613313 0.0 
0.471396735458 0.881921265079 0.0 
0.382683431182 0.923879533001 0.0 
0.29028467633 0.956940336013 0.0 
0.195090321406 0.980785280525 0.0 
0.0980171400308 0.995184726702 0.0 
-0.0980171405408 0.995184726651 0.0 
-0.195090322496 0.980785280308 0.0 
-0.290284677984 0.956940335511 0.0 
-0.382683433367 0.923879532096 0.0 
-0.471396738015 0.881921263713 0.0 
-0.555570234413 0.831469611372 0.0 
-0.634393285746 0.773010452064 0.0 
-0.707106782854 0.707106779519 0.0 
-0.77301045472 0.63439328251 0.0 
-0.831469613313 0.555570231508 0.0 
-0.881921265079 0.471396735458 0.0 
-0.923879533001 0.382683431182 0.0 
-0.956940336013 0.29028467633 0.0 
-0.980785280525 0.195090321406 0.0 
-0.995184726702 0.0980171400308 0.0 
-0.995184726651 -0.0980171405408 0.0 
-0.980785280308 -0.195090322496 0.0 
-0.956940335511 -0.290284677984 0.0 
-0.923879532096 -0.382683433367 0.0 
-0.881921263713 -0.471396738015 0.0 
-0.831469611372 -0.555570234413 0.0 
-0.773010452064 -0.634393285746 0.0 
-0.707106779519 -0.707106782854 0.0 
-0.63439328251 -0.77301045472 0.0 
-0.555570231508 -0.831469613313 0.0 
-0.471396735458 -0.881921265079 0.0 
-0.382683431182 -0.923879533001 0.0 
-0.29028467633 -0.956940336013 0.0 
-0.195090321406 -0.980785280525 0.0 
-0.0980171400308 -0.995184726702 0.0 
0.0980171405408 -0.995184726651 0.0 
0.195090322496 -0.980785280308 0.0 
0.290284677984 -0.956940335511 0.0 
0.382683433367 -0.923879532096 0.0 
0.471396738015 -0.881921263713 0.0 
0.555570234413 -0.831469611372 0.0 
0.634393285746 -0.773010452064 0.0 
0.707106782854 -0.707106779519 0.0 
0.77301045472 -0.63439328251 0.0 
0.831469613313 -0.555570231508 0.0 
0.881921265079 -0.471396735458 0.0 
0.923879533001 -0.382683431182 0.0 
0.956940336013 -0.29028467633 0.0 
0.980785280525 -0.195090321406 0.0 
0.995184726702 -0.0980171400308 0.0 
0.490392640154 0.0975451612479 0.0 
0.461939766048 0.191341716683 0.0 
0.415734805686 0.277785117206 0.0 
0.353553389759 0.353553391427 0.0 
0.277785115754 0.415734806656 0.0 
0.191341715591 0.461939766501 0.0 
0.0975451607029 0.490392640262 0.0 
-0.0975451612479 0.490392640154 0.0 
-0.191341716683 0.461939766048 0.0 
-0.277785117206 0.415734805686 0.0 
-0.353553391427 0.353553389759 0.0 
-0.415734806656 0.277785115754 0.0 
-0.461939766501 0.191341715591 0.0 
-0.490392640262 0.0975451607029 0.0 
-0.490392640154 -0.0975451612479 0.0 
-0.461939766048 -0.191341716683 0.0 
-0.415734805686 -0.277785117206 0.0 
-0.353553389759 -0.353553391427 0.0 
-0.277785115754 -0.415734806656 0.0 
-0.191341715591 -0.461939766501 0.0 
-0.0975451607029 -0.490392640262 0.0 
0.0975451612479 -0.490392640154 0.0 
0.191341716683 -0.461939766048 0.0 
0.277785117206 -0.415734805686 0.0 
0.353553391427 -0.353553389759 0.0 
0.415734806656 -0.277785115754 0.0 
0.461939766501 -0.191341715591 0.0 
0.490392640262 -0.0975451607029 0.0 
0.213535716974 0.704302312577 0.0 
-0.704302312577 0.213535716974 0.0 
-0.213535716974 -0.704302312577 0.0 
0.704302312577 -0.213535716974 0.0 
-0.569053131718 0.467804003043 0.0 
0.467804003043 0.569053131718 0.0 
-0.467804003043 -0.569053131718 0.0 
0.569053131718 -0.467804003043 0.0 
0.733048365471 0.0728158336813 0.0 
-0.0728158336813 0.733048365471 0.0 
-0.733048365471 -0.0728158336813 0.0 
0.0728158336813 -0.733048365471 0.0 
-0.650386305 -0.347536894292 0.0 
0.347536894292 -0.650386305 0.0 
-0.347536894292 0.650386305 0.0 
0.650386305 0.347536894292 0.0 
-0.730970137907 0.390388760085 0.0 
0.390388760085 0.730970137907 0.0 
-0.390388760085 -0.730970137907 0.0 
0.730970137907 -0.390388760085 0.0 
0.829295959711 -0.0770073768987 0.0 
0.0770073768987 0.829295959711 0.0 
-0.0770073768987 -0.829295959711 0.0 
-0.829295959711 0.0770073768987 0.0 
-0.646751382176 -0.524761444919 0.0 
0.524761444919 -0.646751382176 0.0 
0.646751382176 0.524761444919 0.0 
-0.524761444919 0.646751382176 0.0 
-0.239382805287 0.801676508446 0.0 
0.801676508446 0.239382805287 0.0 
-0.801676508446 -0.239382805287 0.0 
0.239382805287 -0.801676508446 0.0 
0.651769636103 -0.0641937059206 0.0 
0.0641937059206 0.651769636103 0.0 
-0.651769636103 0.0641937059206 0.0 
-0.0641937059206 -0.651769636103 0.0 
-0.308728691761 -0.577590759382 0.0 
0.577590759382 -0.308728691761 0.0 
0.308728691761 0.577590759382 0.0 
-0.577590759382 0.308728691761 0.0 
-0.50626253367 -0.415478925683 0.0 
0.415478925683 -0.50626253367 0.0 
-0.415478925683 0.50626253367 0.0 
0.50626253367 0.415478925683 0.0 
-0.190114190847 0.626722494698 0.0 
0.626722494698 0.190114190847 0.0 
-0.626722494698 -0.190114190847 0.0 
0.190114190847 -0.626722494698 0.0 
0.294550644834 0.82313260067 0.0 
-0.82313260067 0.294550644834 0.0 
-0.294550644834 -0.82313260067 0.0 
0.82313260067 -0.294550644834 0.0 
0.520764568168 0.704458577616 0.0 
-0.704458577616 0.520764568168 0.0 
-0.520764568168 -0.704458577616 0.0 
0.704458577616 -0.520764568168 0.0 
0.873195014147 0.0428698961416 0.0 
-0.0428698961416 0.873195014147 0.0 
-0.873195014147 -0.0428698961416 0.0 
0.0428698961416 -0.873195014147 0.0 
-0.749852356822 -0.44947614322 0.0 
0.44947614322 -0.749852356822 0.0 
0.749852356822 0.44947614322 0.0 
-0.44947614322 0.749852356822 0.0 
0.179155725368 0.590597279163 0.0 
-0.590597279163 0.179155725368 0.0 
-0.179155725368 -0.590597279163 0.0 
0.590597279163 -0.179155725368 0.0 
0.391530101187 0.477080810702 0.0 
-0.477080810702 0.391530101187 0.0 
-0.391530101187 -0.477080810702 0.0 
0.477080810702 -0.391530101187 0.0 
0.614200666039 0.0604934856927 0.0 
-0.0604934856927 0.614200666039 0.0 
-0.614200666039 -0.0604934856927 0.0 
0.0604934856927 -0.614200666039 0.0 
-0.290933112937 0.54429756913 0.0 
-0.54429756913 -0.290933112937 0.0 
0.290933112937 -0.54429756913 0.0 
0.54429756913 0.290933112937 0.0 
-0.615709428005 -0.637086188875 0.0 
0.637086188875 -0.615709428005 0.0 
0.615709428005 0.637086188875 0.0 
-0.637086188875 0.615709428005 0.0 
0.18764797381 0.865889802588 0.0 
-0.18764797381 -0.865889802588 0.0 
-0.865889802588 0.18764797381 0.0 
0.865889802588 -0.18764797381 0.0 
0.814753881174 0.352711579568 0.0 
-0.814753881174 -0.352711579568 0.0 
0.352711579568 -0.814753881174 0.0 
-0.352711579568 0.814753881174 0.0 
-0.871787636413 -0.157997559036 0.0 
0.871787636413 0.157997559036 0.0 
-0.157997559036 0.871787636413 0.0 
0.157997559036 -0.871787636413 0.0 
0.306461221915 0.669749121706 0.0 
-0.669749121706 0.306461221915 0.0 
-0.306461221915 -0.669749121706 0.0 
0.669749121706 -0.306461221915 0.0 
0.116678554046 0.728892891067 0.0 
-0.728892891067 0.116678554046 0.0 
0.728892891067 -0.116678554046 0.0 
-0.116678554046 -0.728892891067 0.0 
-0.502001745149 0.541367843571 0.0 
0.541367843571 0.502001745149 0.0 
-0.541367843571 -0.502001745149 0.0 
0.502001745149 -0.541367843571 0.0 
0.719173304544 0.170095439672 0.0 
-0.170095439672 0.719173304544 0.0 
-0.719173304544 -0.170095439672 0.0 
0.170095439672 -0.719173304544 0.0 
-0.792676091003 0.466332735002 0.0 
0.466332735002 0.792676091003 0.0 
-0.466332735002 -0.792676091003 0.0 
0.792676091003 -0.466332735002 0.0 
-0.0479731745066 -0.916878186604 0.0 
0.0479731745066 0.916878186604 0.0 
0.916878186604 -0.0479731745066 0.0 
-0.916878186604 0.0479731745066 0.0 
0.735703881164 0.549278466276 0.0 
-0.735703881164 -0.549278466276 0.0 
0.549278466276 -0.735703881164 0.0 
-0.549278466276 0.735703881164 0.0 
-0.257850089058 0.69205056308 0.0 
0.69205056308 0.257850089058 0.0 
-0.69205056308 -0.257850089058 0.0 
0.257850089058 -0.69205056308 0.0 
-0.598456979722 -0.429849345181 0.0 
0.429849345181 -0.598456979722 0.0 
0.598456979722 0.429849345181 0.0 
-0.429849345181 0.598456979722 0.0 
-0.62556842744 0.387075636781 0.0 
0.387075636781 0.62556842744 0.0 
-0.387075636781 -0.62556842744 0.0 
0.62556842744 -0.387075636781 0.0 
0.0248551646968 0.736252880139 0.0 
0.736252880139 -0.0248551646968 0.0 
-0.0248551646968 -0.736252880139 0.0 
-0.736252880139 0.0248551646968 0.0 
-0.830515925532 0.401070461312 0.0 
-0.401070461312 -0.830515925532 0.0 
0.830515925532 -0.401070461312 0.0 
0.401070461312 0.830515925532 0.0 
-0.297402722727 0.881616858584 0.0 
-0.881616858584 -0.297402722727 0.0 
0.297402722727 -0.881616858584 0.0 
0.881616858584 0.297402722727 0.0 
-0.273888662385 -0.512333823171 0.0 
0.512333823171 -0.273888662385 0.0 
-0.512333823171 0.273888662385 0.0 
0.273888662385 0.512333823171 0.0 
0.578154393363 -0.0569073204685 0.0 
-0.0569073204685 -0.578154393363 0.0 
0.0569073204685 0.578154393363 0.0 
-0.578154393363 0.0569073204685 0.0 
-0.449101795069 -0.368522079727 0.0 
0.368522079727 -0.449101795069 0.0 
0.449101795069 0.368522079727 0.0 
-0.368522079727 0.449101795069 0.0 
0.555922499231 0.168674599229 0.0 
-0.168674599229 0.555922499231 0.0 
-0.555922499231 -0.168674599229 0.0 
0.168674599229 -0.555922499231 0.0 
0.12114719733 0.917606791226 0.0 
-0.917606791226 0.12114719733 0.0 
-0.12114719733 -0.917606791226 0.0 
0.917606791226 -0.12114719733 0.0 
-0.695656384586 -0.610525233734 0.0 
0.610525233734 -0.695656384586 0.0 
-0.610525233734 0.695656384586 0.0 
0.695656384586 0.610525233734 0.0 
-0.188078954285 -0.784542538309 0.0 
0.188078954285 0.784542538309 0.0 
0.784542538309 -0.188078954285 0.0 
-0.784542538309 0.188078954285 0.0 
-0.548071419251 -0.592403152042 0.0 
0.592403152042 -0.548071419251 0.0 
0.548071419251 0.592403152042 0.0 
-0.592403152042 0.548071419251 0.0 
[...]
<PointData Scalars="solution">
<DataArray type="Float64" Name="Real part" format="ascii">
-0.0
-0.0
-0.0
-0.0
-0.559989951947
-0.333816370784
-0.559989951947
-0.333816370784
-0.0
-0.0
-0.0
-0.0
-0.0
-0.0
-0.0
-0.0
-0.0
-0.0
-0.0
-0.0
-0.0
-0.0
-0.0
-0.0
-0.0
-0.0
-0.0
-0.0
-0.0
-0.0
-0.0
-0.0
-0.0
-0.0
-0.0
-0.0
-0.0
-0.0
-0.0
-0.0
-0.0
-0.0
-0.0
-0.0
-0.0
-0.0
-0.0
-0.0
-0.0
-0.0
-0.0
-0.0
-0.0
-0.0
-0.0
-0.0
-0.0
-0.0
-0.0
-0.0
-0.0
-0.0
-0.0
-0.0
-0.0
-0.0
-0.0
-0.0
-0.36449184657
-0.19653989097
-0.0752595884299
-0.0103036230483
-0.00524562416148
-0.0603140970127
-0.17263221122
-0.526503491138
-0.722680248998
-0.886714019058
-0.983911232038
-0.991785185359
-0.908454311543
-0.753377760337
-0.36449184657
-0.19653989097
-0.0752595884299
-0.0103036230483
-0.00524562416148
-0.0603140970127
-0.17263221122
-0.526503491138
-0.722680248998
-0.886714019058
-0.983911232038
-0.991785185359
-0.908454311543
-0.753377760337
-0.0
-0.0
-0.0
-0.0
-0.0
-0.0
-0.0
-0.0
-0.0
-0.0
-0.0
-0.0
-0.0
-0.0
-0.0
-0.0
-0.0
-0.0
-0.0
-0.0
-0.0
-0.0
-0.0
-0.0
-0.0
-0.0
-0.0
-0.0
-0.0
-0.0
-0.0
-0.0
-0.0
-0.0
-0.0
-0.0
-0.0
-0.0
-0.0
-0.0
-0.0
-0.0
-0.0
-0.0
-0.0
-0.0
-0.0
-0.0
-0.0
-0.0
-0.0
-0.0
-0.0
-0.0
-0.0
-0.0
-0.0
-0.0
-0.0
-0.0
-0.0
-0.0
-0.0
-0.0
-0.0
-0.0
-0.0
-0.0
-0.0
-0.0
-0.0
-0.0
-0.0
-0.0
-0.0
-0.0
-0.0
-0.0
-0.0
-0.0
-0.0
-0.0
-0.0
-0.0
-0.0
-0.0
-0.0
-0.0
-0.0
-0.0
-0.0
-0.0
-0.0
-0.0
-0.0
-0.0
-0.0
-0.0
-0.0
-0.0
-0.0
-0.0
-0.0
-0.0
-0.0
-0.0
-0.0
-0.0
-0.0
-0.0
-0.0
-0.0
-0.0
-0.0
-0.0
-0.0
-0.0
-0.0
-0.0
-0.0
-0.0
-0.0
-0.0
-0.0
-0.0
-0.0
-0.0
-0.0
-0.0
-0.0
-0.0
-0.0
-0.0
-0.0
-0.0
-0.0
-0.0
-0.0
-0.0
-0.0
-0.0
-0.0
-0.0
-0.0
-0.0
-0.0
-0.0
-0.0
-0.0
-0.0
-0.0
-0.0
-0.0
-0.0
-0.0
-0.0
-0.0
-0.0
-0.0
-0.0
-0.0
-0.0
-0.0
-0.0
-0.0
-0.0
-0.0
-0.0
-0.0
-0.0
-0.0
-0.0
-0.0
-0.0
-0.0
-0.0
-0.0
-0.0
-0.0
-0.0
-0.0
-0.0
-0.0
-0.0
-0.0
-0.0
-0.0
-0.0
-0.0
-0.0
-0.0
-0.0
-0.0
-0.0
-0.0
-0.0
-0.0
-0.0
-0.0
-0.0
-0.0
-0.0
-0.0
-0.0
-0.0
-0.0
-0.0
-0.0
-0.0
-0.0
-0.0
-0.0
-0.0
-0.0
-0.0
-0.0
-0.0
-0.0
-0.0
-0.0
-0.0
-0.0
-0.0
-0.0
-0.0
-0.0
-0.0
-0.0
-0.0
-0.0
-0.0
-0.0
-0.0
-0.0
-0.0
-0.0
-0.0
-0.0
-0.0
-0.0
-0.0
-0.0
-0.0
-0.0
-0.0
-0.0
-0.0
-0.0
-0.0
-0.0
-0.0
-0.0
-0.0
-0.0
-0.0
-0.0
-0.0
-0.0
-0.0
-0.0
-0.0
-0.0
-0.0
-0.0
-0.0
-0.0
-0.0
-0.0
-0.0
-0.0
-0.0
-0.0
</DataArray>
<DataArray type="Float64" Name="Imag part" format="ascii">
-0.0
-0.0
-0.0
-0.0
-0.828499398744
-0.942638122822
0.828499398744
0.942638122822
-0.0
-0.0
-0.0
-0.0
-0.0
-0.0
-0.0
-0.0
-0.0
-0.0
-0.0
-0.0
-0.0
-0.0
-0.0
-0.0
-0.0
-0.0
-0.0
-0.0
-0.0
-0.0
-0.0
-0.0
-0.0
-0.0
-0.0
-0.0
-0.0
-0.0
-0.0
-0.0
-0.0
-0.0
-0.0
-0.0
-0.0
-0.0
-0.0
-0.0
-0.0
-0.0
-0.0
-0.0
-0.0
-0.0
-0.0
-0.0
-0.0
-0.0
-0.0
-0.0
-0.0
-0.0
-0.0
-0.0
-0.0
-0.0
-0.0
-0.0
-0.931206579543
-0.980495829291
-0.997163975658
-0.999946916267
-0.999986241619
-0.998179447645
-0.984986355057
-0.850172967001
-0.691182506802
-0.46231834098
-0.178658018208
0.127914604726
0.417984166971
0.657587979079
0.931206579543
0.980495829291
0.997163975658
0.999946916267
0.999986241619
0.998179447645
0.984986355057
0.850172967001
0.691182506802
0.46231834098
0.178658018208
-0.127914604726
-0.417984166971
-0.657587979079
-0.0
-0.0
-0.0
-0.0
-0.0
-0.0
-0.0
-0.0
-0.0
-0.0
-0.0
-0.0
-0.0
-0.0
-0.0
-0.0
-0.0
-0.0
-0.0
-0.0
-0.0
-0.0
-0.0
-0.0
-0.0
-0.0
-0.0
-0.0
-0.0
-0.0
-0.0
-0.0
-0.0
-0.0
-0.0
-0.0
-0.0
-0.0
-0.0
-0.0
-0.0
-0.0
-0.0
-0.0
-0.0
-0.0
-0.0
-0.0
-0.0
-0.0
-0.0
-0.0
-0.0
-0.0
-0.0
-0.0
-0.0
-0.0
-0.0
-0.0
-0.0
-0.0
-0.0
-0.0
-0.0
-0.0
-0.0
-0.0
-0.0
-0.0
-0.0
-0.0
-0.0
-0.0
-0.0
-0.0
-0.0
-0.0
-0.0
-0.0
-0.0
-0.0
-0.0
-0.0
-0.0
-0.0
-0.0
-0.0
-0.0
-0.0
-0.0
-0.0
-0.0
-0.0
-0.0
-0.0
-0.0
-0.0
-0.0
-0.0
-0.0
-0.0
-0.0
-0.0
-0.0
-0.0
-0.0
-0.0
-0.0
-0.0
-0.0
-0.0
-0.0
-0.0
-0.0
-0.0
-0.0
-0.0
-0.0
-0.0
-0.0
-0.0
-0.0
-0.0
-0.0
-0.0
-0.0
-0.0
-0.0
-0.0
-0.0
-0.0
-0.0
-0.0
-0.0
-0.0
-0.0
-0.0
-0.0
-0.0
-0.0
-0.0
-0.0
-0.0
-0.0
-0.0
-0.0
-0.0
-0.0
-0.0
-0.0
-0.0
-0.0
-0.0
-0.0
-0.0
-0.0
-0.0
-0.0
-0.0
-0.0
-0.0
-0.0
-0.0
-0.0
-0.0
-0.0
-0.0
-0.0
-0.0
-0.0
-0.0
-0.0
-0.0
-0.0
-0.0
-0.0
-0.0
-0.0
-0.0
-0.0
-0.0
-0.0
-0.0
-0.0
-0.0
-0.0
-0.0
-0.0
-0.0
-0.0
-0.0
-0.0
-0.0
-0.0
-0.0
-0.0
-0.0
-0.0
-0.0
-0.0
-0.0
-0.0
-0.0
-0.0
-0.0
-0.0
-0.0
-0.0
-0.0
-0.0
-0.0
-0.0
-0.0
-0.0
-0.0
-0.0
-0.0
-0.0
-0.0
-0.0
-0.0
-0.0
-0.0
-0.0
-0.0
-0.0
-0.0
-0.0
-0.0
-0.0
-0.0
-0.0
-0.0
-0.0
-0.0
-0.0
-0.0
-0.0
-0.0
-0.0
-0.0
-0.0
-0.0
-0.0
-0.0
-0.0
-0.0
-0.0
-0.0
-0.0
-0.0
-0.0
-0.0
-0.0
-0.0
-0.0
-0.0
-0.0
-0.0
-0.0
-0.0
-0.0
-0.0
-0.0
-0.0
-0.0
-0.0
-0.0
-0.0
-0.0
-0.0
</DataArray>
</PointData>
</Piece>
</UnstructuredGrid>
</VTKFile>
