<VTKFile type="UnstructuredGrid" version="1.0" byte_order="LittleEndian" header_type="UInt64">
<UnstructuredGrid>
<Piece NumberOfPoints="368.0" NumberOfCells= "736">
<Points>
<DataArray NumberOfComponents="3" type="Float64">
1.0 1.0 0.0 0.0 
2.0 0.0 1.0 0.0 
3.0 -1.0 0.0 0.0 
4.0 0.0 -1.0 0.0 
5.0 0.5 0.0 0.0 
6.0 0.0 0.5 0.0 
7.0 -0.5 0.0 0.0 
8.0 0.0 -0.5 0.0 
9.0 0.995184726651 0.0980171405408 0.0 
10.0 0.980785280308 0.195090322496 0.0 
11.0 0.956940335511 0.290284677984 0.0 
12.0 0.923879532096 0.382683433367 0.0 
13.0 0.881921263713 0.471396738015 0.0 
14.0 0.831469611372 0.555570234413 0.0 
15.0 0.773010452064 0.634393285746 0.0 
16.0 0.707106779519 0.707106782854 0.0 
17.0 0.63439328251 0.77301045472 0.0 
18.0 0.555570231508 0.831469613313 0.0 
19.0 0.471396735458 0.881921265079 0.0 
20.0 0.382683431182 0.923879533001 0.0 
21.0 0.29028467633 0.956940336013 0.0 
22.0 0.195090321406 0.980785280525 0.0 
23.0 0.0980171400308 0.995184726702 0.0 
24.0 -0.0980171405408 0.995184726651 0.0 
25.0 -0.195090322496 0.980785280308 0.0 
26.0 -0.290284677984 0.956940335511 0.0 
27.0 -0.382683433367 0.923879532096 0.0 
28.0 -0.471396738015 0.881921263713 0.0 
29.0 -0.555570234413 0.831469611372 0.0 
30.0 -0.634393285746 0.773010452064 0.0 
31.0 -0.707106782854 0.707106779519 0.0 
32.0 -0.77301045472 0.63439328251 0.0 
33.0 -0.831469613313 0.555570231508 0.0 
34.0 -0.881921265079 0.471396735458 0.0 
35.0 -0.923879533001 0.382683431182 0.0 
36.0 -0.956940336013 0.29028467633 0.0 
37.0 -0.980785280525 0.195090321406 0.0 
38.0 -0.995184726702 0.0980171400308 0.0 
39.0 -0.995184726651 -0.0980171405408 0.0 
40.0 -0.980785280308 -0.195090322496 0.0 
41.0 -0.956940335511 -0.290284677984 0.0 
42.0 -0.923879532096 -0.382683433367 0.0 
43.0 -0.881921263713 -0.471396738015 0.0 
44.0 -0.831469611372 -0.555570234413 0.0 
45.0 -0.773010452064 -0.634393285746 0.0 
46.0 -0.707106779519 -0.707106782854 0.0 
47.0 -0.63439328251 -0.77301045472 0.0 
48.0 -0.555570231508 -0.831469613313 0.0 
49.0 -0.471396735458 -0.881921265079 0.0 
50.0 -0.382683431182 -0.923879533001 0.0 
51.0 -0.29028467633 -0.956940336013 0.0 
52.0 -0.195090321406 -0.980785280525 0.0 
53.0 -0.0980171400308 -0.995184726702 0.0 
54.0 0.0980171405408 -0.995184726651 0.0 
55.0 0.195090322496 -0.980785280308 0.0 
56.0 0.290284677984 -0.956940335511 0.0 
57.0 0.382683433367 -0.923879532096 0.0 
58.0 0.471396738015 -0.881921263713 0.0 
59.0 0.555570234413 -0.831469611372 0.0 
60.0 0.634393285746 -0.773010452064 0.0 
61.0 0.707106782854 -0.707106779519 0.0 
62.0 0.77301045472 -0.63439328251 0.0 
63.0 0.831469613313 -0.555570231508 0.0 
64.0 0.881921265079 -0.471396735458 0.0 
65.0 0.923879533001 -0.382683431182 0.0 
66.0 0.956940336013 -0.29028467633 0.0 
67.0 0.980785280525 -0.195090321406 0.0 
68.0 0.995184726702 -0.0980171400308 0.0 
69.0 0.490392640154 0.0975451612479 0.0 
70.0 0.461939766048 0.191341716683 0.0 
71.0 0.415734805686 0.277785117206 0.0 
72.0 0.353553389759 0.353553391427 0.0 
73.0 0.277785115754 0.415734806656 0.0 
74.0 0.191341715591 0.461939766501 0.0 
75.0 0.0975451607029 0.490392640262 0.0 
76.0 -0.0975451612479 0.490392640154 0.0 
77.0 -0.191341716683 0.461939766048 0.0 
78.0 -0.277785117206 0.415734805686 0.0 
79.0 -0.353553391427 0.353553389759 0.0 
80.0 -0.415734806656 0.277785115754 0.0 
81.0 -0.461939766501 0.191341715591 0.0 
82.0 -0.490392640262 0.0975451607029 0.0 
83.0 -0.490392640154 -0.0975451612479 0.0 
84.0 -0.461939766048 -0.191341716683 0.0 
85.0 -0.415734805686 -0.277785117206 0.0 
86.0 -0.353553389759 -0.353553391427 0.0 
87.0 -0.277785115754 -0.415734806656 0.0 
88.0 -0.191341715591 -0.461939766501 0.0 
89.0 -0.0975451607029 -0.490392640262 0.0 
90.0 0.0975451612479 -0.490392640154 0.0 
91.0 0.191341716683 -0.461939766048 0.0 
92.0 0.277785117206 -0.415734805686 0.0 
93.0 0.353553391427 -0.353553389759 0.0 
94.0 0.415734806656 -0.277785115754 0.0 
95.0 0.461939766501 -0.191341715591 0.0 
96.0 0.490392640262 -0.0975451607029 0.0 
97.0 0.213535716974 0.704302312577 0.0 
98.0 -0.704302312577 0.213535716974 0.0 
99.0 -0.213535716974 -0.704302312577 0.0 
100.0 0.704302312577 -0.213535716974 0.0 
101.0 -0.569053131718 0.467804003043 0.0 
102.0 0.467804003043 0.569053131718 0.0 
103.0 -0.467804003043 -0.569053131718 0.0 
104.0 0.569053131718 -0.467804003043 0.0 
105.0 0.733048365471 0.0728158336813 0.0 
106.0 -0.0728158336813 0.733048365471 0.0 
107.0 -0.733048365471 -0.0728158336813 0.0 
108.0 0.0728158336813 -0.733048365471 0.0 
109.0 -0.650386305 -0.347536894292 0.0 
110.0 0.347536894292 -0.650386305 0.0 
111.0 -0.347536894292 0.650386305 0.0 
112.0 0.650386305 0.347536894292 0.0 
113.0 -0.730970137907 0.390388760085 0.0 
114.0 0.390388760085 0.730970137907 0.0 
115.0 -0.390388760085 -0.730970137907 0.0 
116.0 0.730970137907 -0.390388760085 0.0 
117.0 0.829295959711 -0.0770073768987 0.0 
118.0 0.0770073768987 0.829295959711 0.0 
119.0 -0.0770073768987 -0.829295959711 0.0 
120.0 -0.829295959711 0.0770073768987 0.0 
121.0 -0.646751382176 -0.524761444919 0.0 
122.0 0.524761444919 -0.646751382176 0.0 
123.0 0.646751382176 0.524761444919 0.0 
124.0 -0.524761444919 0.646751382176 0.0 
125.0 -0.239382805287 0.801676508446 0.0 
126.0 0.801676508446 0.239382805287 0.0 
127.0 -0.801676508446 -0.239382805287 0.0 
128.0 0.239382805287 -0.801676508446 0.0 
129.0 0.651769636103 -0.0641937059206 0.0 
130.0 0.0641937059206 0.651769636103 0.0 
131.0 -0.651769636103 0.0641937059206 0.0 
132.0 -0.0641937059206 -0.651769636103 0.0 
133.0 -0.308728691761 -0.577590759382 0.0 
134.0 0.577590759382 -0.308728691761 0.0 
135.0 0.308728691761 0.577590759382 0.0 
136.0 -0.577590759382 0.308728691761 0.0 
137.0 -0.50626253367 -0.415478925683 0.0 
138.0 0.415478925683 -0.50626253367 0.0 
139.0 -0.415478925683 0.50626253367 0.0 
140.0 0.50626253367 0.415478925683 0.0 
141.0 -0.190114190847 0.626722494698 0.0 
142.0 0.626722494698 0.190114190847 0.0 
143.0 -0.626722494698 -0.190114190847 0.0 
144.0 0.190114190847 -0.626722494698 0.0 
145.0 0.294550644834 0.82313260067 0.0 
146.0 -0.82313260067 0.294550644834 0.0 
147.0 -0.294550644834 -0.82313260067 0.0 
148.0 0.82313260067 -0.294550644834 0.0 
149.0 0.520764568168 0.704458577616 0.0 
150.0 -0.704458577616 0.520764568168 0.0 
151.0 -0.520764568168 -0.704458577616 0.0 
152.0 0.704458577616 -0.520764568168 0.0 
153.0 0.873195014147 0.0428698961416 0.0 
154.0 -0.0428698961416 0.873195014147 0.0 
155.0 -0.873195014147 -0.0428698961416 0.0 
156.0 0.0428698961416 -0.873195014147 0.0 
157.0 -0.749852356822 -0.44947614322 0.0 
158.0 0.44947614322 -0.749852356822 0.0 
159.0 0.749852356822 0.44947614322 0.0 
160.0 -0.44947614322 0.749852356822 0.0 
161.0 0.179155725368 0.590597279163 0.0 
162.0 -0.590597279163 0.179155725368 0.0 
163.0 -0.179155725368 -0.590597279163 0.0 
164.0 0.590597279163 -0.179155725368 0.0 
165.0 0.391530101187 0.477080810702 0.0 
166.0 -0.477080810702 0.391530101187 0.0 
167.0 -0.391530101187 -0.477080810702 0.0 
168.0 0.477080810702 -0.391530101187 0.0 
169.0 0.614200666039 0.0604934856927 0.0 
170.0 -0.0604934856927 0.614200666039 0.0 
171.0 -0.614200666039 -0.0604934856927 0.0 
172.0 0.0604934856927 -0.614200666039 0.0 
173.0 -0.290933112937 0.54429756913 0.0 
174.0 -0.54429756913 -0.290933112937 0.0 
175.0 0.290933112937 -0.54429756913 0.0 
176.0 0.54429756913 0.290933112937 0.0 
177.0 -0.615709428005 -0.637086188875 0.0 
178.0 0.637086188875 -0.615709428005 0.0 
179.0 0.615709428005 0.637086188875 0.0 
180.0 -0.637086188875 0.615709428005 0.0 
181.0 0.18764797381 0.865889802588 0.0 
182.0 -0.18764797381 -0.865889802588 0.0 
183.0 -0.865889802588 0.18764797381 0.0 
184.0 0.865889802588 -0.18764797381 0.0 
185.0 0.814753881174 0.352711579568 0.0 
186.0 -0.814753881174 -0.352711579568 0.0 
187.0 0.352711579568 -0.814753881174 0.0 
188.0 -0.352711579568 0.814753881174 0.0 
189.0 -0.871787636413 -0.157997559036 0.0 
190.0 0.871787636413 0.157997559036 0.0 
191.0 -0.157997559036 0.871787636413 0.0 
192.0 0.157997559036 -0.871787636413 0.0 
193.0 0.306461221915 0.669749121706 0.0 
194.0 -0.669749121706 0.306461221915 0.0 
195.0 -0.306461221915 -0.669749121706 0.0 
196.0 0.669749121706 -0.306461221915 0.0 
197.0 0.116678554046 0.728892891067 0.0 
198.0 -0.728892891067 0.116678554046 0.0 
199.0 0.728892891067 -0.116678554046 0.0 
200.0 -0.116678554046 -0.728892891067 0.0 
201.0 -0.502001745149 0.541367843571 0.0 
202.0 0.541367843571 0.502001745149 0.0 
203.0 -0.541367843571 -0.502001745149 0.0 
204.0 0.502001745149 -0.541367843571 0.0 
205.0 0.719173304544 0.170095439672 0.0 
206.0 -0.170095439672 0.719173304544 0.0 
207.0 -0.719173304544 -0.170095439672 0.0 
208.0 0.170095439672 -0.719173304544 0.0 
209.0 -0.792676091003 0.466332735002 0.0 
210.0 0.466332735002 0.792676091003 0.0 
211.0 -0.466332735002 -0.792676091003 0.0 
212.0 0.792676091003 -0.466332735002 0.0 
213.0 -0.0479731745066 -0.916878186604 0.0 
214.0 0.0479731745066 0.916878186604 0.0 
215.0 0.916878186604 -0.0479731745066 0.0 
216.0 -0.916878186604 0.0479731745066 0.0 
217.0 0.735703881164 0.549278466276 0.0 
218.0 -0.735703881164 -0.549278466276 0.0 
219.0 0.549278466276 -0.735703881164 0.0 
220.0 -0.549278466276 0.735703881164 0.0 
221.0 -0.257850089058 0.69205056308 0.0 
222.0 0.69205056308 0.257850089058 0.0 
223.0 -0.69205056308 -0.257850089058 0.0 
224.0 0.257850089058 -0.69205056308 0.0 
225.0 -0.598456979722 -0.429849345181 0.0 
226.0 0.429849345181 -0.598456979722 0.0 
227.0 0.598456979722 0.429849345181 0.0 
228.0 -0.429849345181 0.598456979722 0.0 
229.0 -0.62556842744 0.387075636781 0.0 
230.0 0.387075636781 0.62556842744 0.0 
231.0 -0.387075636781 -0.62556842744 0.0 
232.0 0.62556842744 -0.387075636781 0.0 
233.0 0.0248551646968 0.736252880139 0.0 
234.0 0.736252880139 -0.0248551646968 0.0 
235.0 -0.0248551646968 -0.736252880139 0.0 
236.0 -0.736252880139 0.0248551646968 0.0 
237.0 -0.830515925532 0.401070461312 0.0 
238.0 -0.401070461312 -0.830515925532 0.0 
239.0 0.830515925532 -0.401070461312 0.0 
[...]
<PointData Scalars="solution">
<DataArray type="Float64" Name="Real part" format="ascii">
0.164479596539
0.119675640691
0.0417720915041
0.119388576857
-0.208494034391
-0.522361982345
-0.319429362832
-0.608138342527
0.192099277244
0.179457914943
0.118263744351
0.0310871624994
-0.0633825677481
-0.149773774677
-0.201011654879
-0.212325845841
-0.170807075403
-0.100743306896
-0.0016064164614
0.0986849833278
0.171709454513
0.215691269708
0.200486150059
0.131988722794
0.113847650612
0.0703929538219
0.0261113128732
-0.0111830857564
-0.0312780243403
-0.0318414297401
-0.0134632382157
0.0145984993803
0.0435378568108
0.0640380868006
0.0704228001343
0.057831398769
0.039029692145
0.0200182013398
-0.00469315665314
-0.0184338809418
-0.0196709617705
-0.0156586224002
-0.00897837268387
-0.000339262118948
0.00915758447172
0.0221318890784
0.0367025917887
0.0557689402755
0.0713206269952
0.0864538678648
0.0889384971046
0.0935457103939
0.0930335310851
0.0520215345052
0.0117844708094
-0.0183595114697
-0.0344546661513
-0.0343962946509
-0.0178876817725
0.0115996843821
0.0495878494245
0.0810406811365
0.100933327435
0.0850179939883
-0.00258254725336
-0.00132714559661
-0.00142792023219
-0.00287283312987
0.0215157268158
0.0209587383576
0.0215831806136
0.0215388020326
0.0214319438327
0.0218826476159
0.0278714884892
0.0195762017057
0.00372284707136
-0.0083258318817
-0.0177749569818
-0.0207864962022
-0.0158900938135
-0.00416719788744
0.0153099932273
0.018444620413
0.0201600828199
0.020463073179
0.0204829466068
0.0207277721854
0.0245324388939
0.0124582617463
-0.00364510085716
-0.0150857470094
-0.0215988233934
-0.0200242154198
-0.0109865229201
0.00466477879731
0.0632327093243
-0.0515523591639
-0.0095468507583
0.109158391932
-0.00563235762255
-0.0934330523438
0.0374700303929
0.0654204671949
0.123699470877
0.0687255028294
-0.108223708237
-0.124327794373
-0.0362877752584
-0.0639681306771
0.0289374685414
-0.0274894657669
0.00939615840857
-0.0106681850953
0.0601117455109
0.110111450761
0.134961568517
0.155801012562
-0.0086657211015
-0.0532539706881
0.00952352142452
0.010206430134
-0.154267555573
0.000960213389087
0.0868165835571
0.103113419208
-0.0682315128817
-0.0809293329378
0.0703613125259
-0.0103103007458
-0.121015308144
-0.146626621163
0.0199812037535
0.0713544518425
-0.00791470116116
-0.0307318144695
0.00870007440249
-0.00713199621553
0.00090432652618
-0.057284610275
0.0213184547999
0.0474490908091
-0.0748003196634
-0.11529004687
0.107876037447
0.0139382181888
0.0639556551045
0.0888146474358
-0.123034111695
0.0152006794345
0.0563148559638
0.0991511949182
0.175413616471
0.152396379597
-0.0515960705124
-0.0117786350295
-0.0183128502502
-0.0370346112064
-0.0926526386489
0.0131131495274
0.0112768797442
-0.0638014326583
-0.0394632787369
0.0612062264272
-0.0350327271132
-0.0162966108899
0.0260876879052
0.0272420897698
0.0329820628169
-0.064500228009
-0.133331335396
-0.205430944694
0.0116722328895
-0.0204594124577
-0.0542966955171
-0.00276374081645
0.0340238218432
0.0610384232689
-0.182212239229
-8.14461326032e-05
0.173706109735
0.0519836526622
-0.0041861889815
0.0866077059765
0.0165771600148
-0.0396019007091
-0.0596330763801
0.0479167972139
-0.0579697564804
0.16903197573
0.124626072556
-0.0411099761983
0.0164872217037
-0.0254470903642
0.0277848489717
0.104007063941
0.0822299285544
-0.081848746434
0.116763450591
-0.0588660592918
0.00053694501778
-0.111363419777
0.0197560629225
0.0240384759642
0.0970011311026
0.0621136626482
-0.09343840496
-0.120220137794
0.0361788593193
-0.0441784677053
0.0687038075698
0.102257448343
0.0506499887498
0.174353447489
0.126620275332
-0.0119872235811
-0.166370407363
0.00335116100507
-0.00155474505013
-0.0109998127232
0.0496140118856
0.0439457626193
-0.0678341386403
-0.0985912443175
-0.00517519248216
-0.0201210862361
-0.0860762389726
0.0111226636032
-0.0124079886172
-0.042033774908
0.0413571556082
0.0924140397745
0.0760476955831
0.124609161335
-0.102606444708
-0.104024160735
0.0415523273213
0.0756329083385
0.0818762378284
0.03251234604
0.0725394857985
-0.0388319297101
-0.0466293613378
0.0894386683748
0.0156087177742
0.0352267826089
-0.0310396064678
0.00285383214928
0.000653315876162
-0.212346225449
-0.111345880434
-0.142738414494
0.0131721221454
-0.0141686752715
-0.0201646419316
-0.00571402955976
0.0289908260773
-0.00314297261767
-0.0506077068564
-0.0924888105601
0.195180624151
-0.00118375316722
0.0620027899183
0.0758301927988
0.0173319662357
0.0287086036244
-0.0118592175847
-0.194791601577
0.0114720354008
0.123485300161
0.113623871939
-0.0369201294774
0.0362974478657
0.0617942949835
-0.143772418419
0.000566370176716
0.150853461591
-0.0856071631728
0.108549685633
-0.08428621961
0.0450348844052
-0.000183312331801
-0.0469222830271
-0.0718943305538
-0.0436142148443
0.0320461992338
0.0643544438741
-0.0181578270828
0.0853250842767
-0.126726359859
-0.161801106587
0.0065152139868
-0.0424705964105
0.0127822329732
-0.0133906797149
-0.0388942154072
-0.0512112717411
-0.0871581589713
0.0162255356717
0.0270528232077
0.0190033292536
-0.0472907902975
-0.00349992779383
0.0874541624274
-0.0871984679285
0.0887310429439
0.0291631745621
-0.0738968886002
-0.0724228726347
-0.00655211634336
0.0239067683978
0.0265837597696
0.0732211902048
0.0135950830371
-0.109624141188
-0.154634273114
0.0665203830098
-0.0180275196508
0.0340152211636
0.10917378355
0.146831184998
0.103588564196
-0.0416198650087
-0.0321087049428
-0.16939612539
0.0106529338938
0.0439340480831
0.0843275153827
0.0503130150692
0.0767658003728
0.16278484112
0.0299305498099
0.189706487554
0.142051318892
0.0101357722312
-0.0327515805249
-0.0208690872172
-0.0433101713035
-0.0511482556366
0.0138442716697
0.00136550258926
0.0495955168937
0.0926426271458
-0.090452882868
-0.02022091716
-0.0395263727398
0.0195147161066
-0.0780718897261
0.117469637206
-0.0714009371281
0.152656601749
-0.0863915339559
-0.0143481790703
0.0227873859887
0.0109653988681
-0.0398211274242
-0.0189455733388
-0.00193818252176
0.0226555051107
-0.000278289662664
-0.172327725819
-0.0388365392866
-0.146447956514
-0.261801644738
0.00240203492125
0.000864428503664
-0.0317249181798
0.0113377642246
</DataArray>
<DataArray type="Float64" Name="Imag part" format="ascii">
0.0603981532016
-0.101502827814
0.0316854061086
0.124667567437
0.743143854286
0.521774043256
-0.64563793102
-0.406044771434
0.0910419436249
0.0529434161274
-0.0279930625562
-0.127196219897
-0.205950398589
-0.263546653554
-0.262067789687
-0.217014105014
-0.127332723354
-0.0258365459616
0.0752613108645
0.149189789971
0.175218462784
0.155972151232
0.0731267086639
-0.0756274661082
-0.10960406158
-0.1449470996
-0.16961952215
-0.162512034904
-0.139861258037
-0.0886130101892
-0.0276200409797
0.0352855368182
0.0949553255857
0.136226146755
0.162923930093
0.159809077279
0.147258716578
0.105388393522
0.0785148211926
0.0993387285496
0.0951670740045
0.0771671392823
0.0444306839128
0.00792309164316
-0.0303993045972
-0.0616072634625
-0.0766899482307
-0.0773960304932
-0.0563323007403
-0.0181438886621
0.0294598316023
0.0809523416963
0.118080124045
0.184644756793
0.211428986952
0.186050280933
0.124454874893
0.0333025496376
-0.0646770676986
-0.14970171209
-0.205541677443
-0.210317372242
-0.181672624764
-0.105637609673
0.000946627057524
-0.000968120829338
-0.00163676117497
-0.00302623608351
-0.0198348406577
-0.00458295600686
0.0022582051514
0.00508042205083
0.00413308522
-4.80841564625e-05
-0.00959222796415
-0.0219492873539
-0.0214928227266
-0.0195604636673
-0.0117539500487
0.000235858027086
0.0126047669263
0.0272348994321
0.0250150357082
0.0128327047719
0.00771291107056
0.00498678101942
0.00474822011409
0.00719764804026
0.0166960112907
0.0255696338532
0.0207156585876
0.0148575199818
0.00371039213729
-0.00951267132616
-0.0203778668552
-0.0309277700726
0.186036263013
0.100534019002
0.035907356688
0.0897299863073
0.0416234878731
-0.0631361172089
-0.022768463009
-0.106220428926
0.187274476569
0.110051042699
0.0141164695447
0.111119562208
0.0193662232516
0.0223980935379
-0.0636803390928
-0.0932831566609
0.139317716455
0.0820720598464
-0.0191152114728
-0.0740609848263
0.145593249765
0.159622695438
0.125853011736
0.102013692027
-0.0147169379584
-0.111666884107
-0.211793470187
-0.0643698737799
-0.0701467781435
0.0122874109354
0.0672000128051
0.157600950899
0.239561516358
0.216620541728
-0.0457028365257
0.00779460326873
0.00086603009524
-0.0128303878084
0.0648965951991
0.0678914794808
-0.00205758815748
-0.0435108165423
-0.0204937927878
-0.0820178310108
0.0301941211269
0.0758735287088
-0.00766459902377
0.0568297587696
0.180557593483
0.171163121273
0.0275548298342
0.0112383936893
-0.0658202394608
0.0789440157645
-0.0537359108367
-0.17054579878
0.135730356288
0.0373309990341
0.084216257688
0.179483635455
0.0252672274274
-0.0115719669467
-0.209510432416
-0.127373392888
0.134302849044
0.0273516939498
0.00782745450506
0.0900755976619
-0.0208502682871
0.0218001443327
-0.00496811474243
-0.0459718297016
0.259110892959
0.180664116244
-0.116969397734
-0.0173017530545
-0.0225019906378
0.00549686414064
0.0153230164859
-0.0272943314705
-0.0475568186233
-0.181036616556
-0.183857541811
-0.00474088677567
0.188911525888
0.0858301237792
0.153853689316
0.0673660278758
-0.118820943553
0.0625644696987
0.101199171177
-0.135745922374
0.0847431646638
0.0835131967098
-0.0459438793441
0.198723106352
0.119082824568
0.11260810555
0.00666105120902
-0.00148100243919
0.206487258387
0.0636410745103
0.171276668926
0.0659256301394
-0.0148676082296
-0.130083087185
-0.0152154205787
-0.0965024803673
0.102664758699
0.0272238812802
0.0220234872641
0.114891428426
0.13086105545
0.0373750851087
-0.048538000839
-0.127495229156
0.144358389609
0.0653510486887
0.0929272924825
0.0971560520607
-0.2518285253
-0.00841710760172
-0.102883334722
-0.103185155708
-0.0348813300525
-0.000836809806076
0.0281059722272
0.0856570856143
0.00183636387437
-0.0473647356783
-0.140081046324
-0.0537406176068
0.0901245511622
0.031556091446
-0.0143804056219
-0.0692733320832
0.17853316942
0.211432339896
0.0894161116022
0.0264784446009
0.159463403774
-0.0241931592172
-0.063286421355
0.112508758168
-0.133708966674
0.084707858048
0.164090249021
-0.0509081191278
0.00326932346376
-0.006018562519
0.0378868376884
0.0431826081813
0.291615015837
-0.0767436329453
0.236844590881
-0.156515832645
0.00194053544686
-0.0187901149597
-0.0398883041606
-0.0154438501688
0.0713478849897
0.0339422629524
-0.0221636639687
0.0257862486758
0.134028918562
0.129908392186
0.118598293896
0.0630818711638
-0.0342543298364
-0.159515194553
-0.0612844192643
-0.239860047421
0.0688825224223
0.202921029938
0.0987714291843
0.130872280212
-0.0347750024983
-0.147387888068
-0.13493635653
0.0150685927314
0.128825572571
0.0580543963052
0.0270419212635
0.165665472884
-0.0966499004315
-0.0998781904203
0.0418399618622
0.0686913064802
0.004874895651
-0.00962246624282
-0.0579543597684
0.0561436932427
0.244673489761
-0.0445235712897
0.039721129699
0.187469541482
-0.0840075001723
-0.0391186756661
0.00576358599883
-0.0131628608846
0.00978456824667
0.0449699796983
-0.00774766051397
-0.0203226016013
0.130444129153
0.0751485518318
0.0121579028743
0.0458597319887
0.0278991669856
0.160238975961
0.195914235588
0.0244793169749
-0.0721435079914
0.00730196363056
-0.010415050907
-0.0717539010586
0.170995599178
0.0986607018638
-0.0326140593102
0.0603135736221
0.167383711922
0.14081426645
0.0247146021569
0.0270478051195
0.0224325240411
-0.104402405287
0.093120967
0.198551831462
-0.13395283158
0.0375655471442
-0.0649146770486
-0.200696375636
0.0213425382439
0.0478645323514
0.188129167454
0.170370937936
0.103508651628
-0.0413199908223
0.197141139663
0.0860538317763
0.046876855653
0.0422949824218
-0.192078337074
-0.153396271639
0.0782124141256
-0.0326002443989
-0.124122319623
-0.032887566884
0.0161315642364
-0.0168458775627
-0.0890723641039
-0.163916242202
0.108815526503
0.142414351845
0.176673628431
0.0571891451045
0.0047811773186
0.036735866875
0.063997969999
0.0134182476408
0.00616736707809
-0.00481366056114
0.00122203931991
-0.0198970626945
0.223699272764
0.320973747258
-0.228678814601
-0.116727381725
-0.0183634117326
0.00639549926396
0.015864327096
-0.00855478405969
</DataArray>
</PointData>
</Piece>
</UnstructuredGrid>
</VTKFile>
