<VTKFile type="UnstructuredGrid" version="1.0" byte_order="LittleEndian" header_type="UInt64">
<UnstructuredGrid>
<Piece NumberOfPoints="368.0" NumberOfCells= "640">
<Points>
<DataArray NumberOfComponents="3" type="Float64">
1.0 1.0 0.0 0.0 
2.0 0.0 1.0 0.0 
3.0 -1.0 0.0 0.0 
4.0 0.0 -1.0 0.0 
5.0 0.5 0.0 0.0 
6.0 0.0 0.5 0.0 
7.0 -0.5 0.0 0.0 
8.0 0.0 -0.5 0.0 
9.0 0.995184726651 0.0980171405408 0.0 
10.0 0.980785280308 0.195090322496 0.0 
11.0 0.956940335511 0.290284677984 0.0 
12.0 0.923879532096 0.382683433367 0.0 
13.0 0.881921263713 0.471396738015 0.0 
14.0 0.831469611372 0.555570234413 0.0 
15.0 0.773010452064 0.634393285746 0.0 
16.0 0.707106779519 0.707106782854 0.0 
17.0 0.63439328251 0.77301045472 0.0 
18.0 0.555570231508 0.831469613313 0.0 
19.0 0.471396735458 0.881921265079 0.0 
20.0 0.382683431182 0.923879533001 0.0 
21.0 0.29028467633 0.956940336013 0.0 
22.0 0.195090321406 0.980785280525 0.0 
23.0 0.0980171400308 0.995184726702 0.0 
24.0 -0.0980171405408 0.995184726651 0.0 
25.0 -0.195090322496 0.980785280308 0.0 
26.0 -0.290284677984 0.956940335511 0.0 
27.0 -0.382683433367 0.923879532096 0.0 
28.0 -0.471396738015 0.881921263713 0.0 
29.0 -0.555570234413 0.831469611372 0.0 
30.0 -0.634393285746 0.773010452064 0.0 
31.0 -0.707106782854 0.707106779519 0.0 
32.0 -0.77301045472 0.63439328251 0.0 
33.0 -0.831469613313 0.555570231508 0.0 
34.0 -0.881921265079 0.471396735458 0.0 
35.0 -0.923879533001 0.382683431182 0.0 
36.0 -0.956940336013 0.29028467633 0.0 
37.0 -0.980785280525 0.195090321406 0.0 
38.0 -0.995184726702 0.0980171400308 0.0 
39.0 -0.995184726651 -0.0980171405408 0.0 
40.0 -0.980785280308 -0.195090322496 0.0 
41.0 -0.956940335511 -0.290284677984 0.0 
42.0 -0.923879532096 -0.382683433367 0.0 
43.0 -0.881921263713 -0.471396738015 0.0 
44.0 -0.831469611372 -0.555570234413 0.0 
45.0 -0.773010452064 -0.634393285746 0.0 
46.0 -0.707106779519 -0.707106782854 0.0 
47.0 -0.63439328251 -0.77301045472 0.0 
48.0 -0.555570231508 -0.831469613313 0.0 
49.0 -0.471396735458 -0.881921265079 0.0 
50.0 -0.382683431182 -0.923879533001 0.0 
51.0 -0.29028467633 -0.956940336013 0.0 
52.0 -0.195090321406 -0.980785280525 0.0 
53.0 -0.0980171400308 -0.995184726702 0.0 
54.0 0.0980171405408 -0.995184726651 0.0 
55.0 0.195090322496 -0.980785280308 0.0 
56.0 0.290284677984 -0.956940335511 0.0 
57.0 0.382683433367 -0.923879532096 0.0 
58.0 0.471396738015 -0.881921263713 0.0 
59.0 0.555570234413 -0.831469611372 0.0 
60.0 0.634393285746 -0.773010452064 0.0 
61.0 0.707106782854 -0.707106779519 0.0 
62.0 0.77301045472 -0.63439328251 0.0 
63.0 0.831469613313 -0.555570231508 0.0 
64.0 0.881921265079 -0.471396735458 0.0 
65.0 0.923879533001 -0.382683431182 0.0 
66.0 0.956940336013 -0.29028467633 0.0 
67.0 0.980785280525 -0.195090321406 0.0 
68.0 0.995184726702 -0.0980171400308 0.0 
69.0 0.490392640154 0.0975451612479 0.0 
70.0 0.461939766048 0.191341716683 0.0 
71.0 0.415734805686 0.277785117206 0.0 
72.0 0.353553389759 0.353553391427 0.0 
73.0 0.277785115754 0.415734806656 0.0 
74.0 0.191341715591 0.461939766501 0.0 
75.0 0.0975451607029 0.490392640262 0.0 
76.0 -0.0975451612479 0.490392640154 0.0 
77.0 -0.191341716683 0.461939766048 0.0 
78.0 -0.277785117206 0.415734805686 0.0 
79.0 -0.353553391427 0.353553389759 0.0 
80.0 -0.415734806656 0.277785115754 0.0 
81.0 -0.461939766501 0.191341715591 0.0 
82.0 -0.490392640262 0.0975451607029 0.0 
83.0 -0.490392640154 -0.0975451612479 0.0 
84.0 -0.461939766048 -0.191341716683 0.0 
85.0 -0.415734805686 -0.277785117206 0.0 
86.0 -0.353553389759 -0.353553391427 0.0 
87.0 -0.277785115754 -0.415734806656 0.0 
88.0 -0.191341715591 -0.461939766501 0.0 
89.0 -0.0975451607029 -0.490392640262 0.0 
90.0 0.0975451612479 -0.490392640154 0.0 
91.0 0.191341716683 -0.461939766048 0.0 
92.0 0.277785117206 -0.415734805686 0.0 
93.0 0.353553391427 -0.353553389759 0.0 
94.0 0.415734806656 -0.277785115754 0.0 
95.0 0.461939766501 -0.191341715591 0.0 
96.0 0.490392640262 -0.0975451607029 0.0 
97.0 0.213535716974 0.704302312577 0.0 
98.0 -0.704302312577 0.213535716974 0.0 
99.0 -0.213535716974 -0.704302312577 0.0 
100.0 0.704302312577 -0.213535716974 0.0 
101.0 -0.569053131718 0.467804003043 0.0 
102.0 0.467804003043 0.569053131718 0.0 
103.0 -0.467804003043 -0.569053131718 0.0 
104.0 0.569053131718 -0.467804003043 0.0 
105.0 0.733048365471 0.0728158336813 0.0 
106.0 -0.0728158336813 0.733048365471 0.0 
107.0 -0.733048365471 -0.0728158336813 0.0 
108.0 0.0728158336813 -0.733048365471 0.0 
109.0 -0.650386305 -0.347536894292 0.0 
110.0 0.347536894292 -0.650386305 0.0 
111.0 -0.347536894292 0.650386305 0.0 
112.0 0.650386305 0.347536894292 0.0 
113.0 -0.730970137907 0.390388760085 0.0 
114.0 0.390388760085 0.730970137907 0.0 
115.0 -0.390388760085 -0.730970137907 0.0 
116.0 0.730970137907 -0.390388760085 0.0 
117.0 0.829295959711 -0.0770073768987 0.0 
118.0 0.0770073768987 0.829295959711 0.0 
119.0 -0.0770073768987 -0.829295959711 0.0 
120.0 -0.829295959711 0.0770073768987 0.0 
121.0 -0.646751382176 -0.524761444919 0.0 
122.0 0.524761444919 -0.646751382176 0.0 
123.0 0.646751382176 0.524761444919 0.0 
124.0 -0.524761444919 0.646751382176 0.0 
125.0 -0.239382805287 0.801676508446 0.0 
126.0 0.801676508446 0.239382805287 0.0 
127.0 -0.801676508446 -0.239382805287 0.0 
128.0 0.239382805287 -0.801676508446 0.0 
129.0 0.651769636103 -0.0641937059206 0.0 
130.0 0.0641937059206 0.651769636103 0.0 
131.0 -0.651769636103 0.0641937059206 0.0 
132.0 -0.0641937059206 -0.651769636103 0.0 
133.0 -0.308728691761 -0.577590759382 0.0 
134.0 0.577590759382 -0.308728691761 0.0 
135.0 0.308728691761 0.577590759382 0.0 
136.0 -0.577590759382 0.308728691761 0.0 
137.0 -0.50626253367 -0.415478925683 0.0 
138.0 0.415478925683 -0.50626253367 0.0 
139.0 -0.415478925683 0.50626253367 0.0 
140.0 0.50626253367 0.415478925683 0.0 
141.0 -0.190114190847 0.626722494698 0.0 
142.0 0.626722494698 0.190114190847 0.0 
143.0 -0.626722494698 -0.190114190847 0.0 
144.0 0.190114190847 -0.626722494698 0.0 
145.0 0.294550644834 0.82313260067 0.0 
146.0 -0.82313260067 0.294550644834 0.0 
147.0 -0.294550644834 -0.82313260067 0.0 
148.0 0.82313260067 -0.294550644834 0.0 
149.0 0.520764568168 0.704458577616 0.0 
150.0 -0.704458577616 0.520764568168 0.0 
151.0 -0.520764568168 -0.704458577616 0.0 
152.0 0.704458577616 -0.520764568168 0.0 
153.0 0.873195014147 0.0428698961416 0.0 
154.0 -0.0428698961416 0.873195014147 0.0 
155.0 -0.873195014147 -0.0428698961416 0.0 
156.0 0.0428698961416 -0.873195014147 0.0 
157.0 -0.749852356822 -0.44947614322 0.0 
158.0 0.44947614322 -0.749852356822 0.0 
159.0 0.749852356822 0.44947614322 0.0 
160.0 -0.44947614322 0.749852356822 0.0 
161.0 0.179155725368 0.590597279163 0.0 
162.0 -0.590597279163 0.179155725368 0.0 
163.0 -0.179155725368 -0.590597279163 0.0 
164.0 0.590597279163 -0.179155725368 0.0 
165.0 0.391530101187 0.477080810702 0.0 
166.0 -0.477080810702 0.391530101187 0.0 
167.0 -0.391530101187 -0.477080810702 0.0 
168.0 0.477080810702 -0.391530101187 0.0 
169.0 0.614200666039 0.0604934856927 0.0 
170.0 -0.0604934856927 0.614200666039 0.0 
171.0 -0.614200666039 -0.0604934856927 0.0 
172.0 0.0604934856927 -0.614200666039 0.0 
173.0 -0.290933112937 0.54429756913 0.0 
174.0 -0.54429756913 -0.290933112937 0.0 
175.0 0.290933112937 -0.54429756913 0.0 
176.0 0.54429756913 0.290933112937 0.0 
177.0 -0.615709428005 -0.637086188875 0.0 
178.0 0.637086188875 -0.615709428005 0.0 
179.0 0.615709428005 0.637086188875 0.0 
180.0 -0.637086188875 0.615709428005 0.0 
181.0 0.18764797381 0.865889802588 0.0 
182.0 -0.18764797381 -0.865889802588 0.0 
183.0 -0.865889802588 0.18764797381 0.0 
184.0 0.865889802588 -0.18764797381 0.0 
185.0 0.814753881174 0.352711579568 0.0 
186.0 -0.814753881174 -0.352711579568 0.0 
187.0 0.352711579568 -0.814753881174 0.0 
188.0 -0.352711579568 0.814753881174 0.0 
189.0 -0.871787636413 -0.157997559036 0.0 
190.0 0.871787636413 0.157997559036 0.0 
191.0 -0.157997559036 0.871787636413 0.0 
192.0 0.157997559036 -0.871787636413 0.0 
193.0 0.306461221915 0.669749121706 0.0 
194.0 -0.669749121706 0.306461221915 0.0 
195.0 -0.306461221915 -0.669749121706 0.0 
196.0 0.669749121706 -0.306461221915 0.0 
197.0 0.116678554046 0.728892891067 0.0 
198.0 -0.728892891067 0.116678554046 0.0 
199.0 0.728892891067 -0.116678554046 0.0 
200.0 -0.116678554046 -0.728892891067 0.0 
201.0 -0.502001745149 0.541367843571 0.0 
202.0 0.541367843571 0.502001745149 0.0 
203.0 -0.541367843571 -0.502001745149 0.0 
204.0 0.502001745149 -0.541367843571 0.0 
205.0 0.719173304544 0.170095439672 0.0 
206.0 -0.170095439672 0.719173304544 0.0 
207.0 -0.719173304544 -0.170095439672 0.0 
208.0 0.170095439672 -0.719173304544 0.0 
209.0 -0.792676091003 0.466332735002 0.0 
210.0 0.466332735002 0.792676091003 0.0 
211.0 -0.466332735002 -0.792676091003 0.0 
212.0 0.792676091003 -0.466332735002 0.0 
213.0 -0.0479731745066 -0.916878186604 0.0 
214.0 0.0479731745066 0.916878186604 0.0 
215.0 0.916878186604 -0.0479731745066 0.0 
216.0 -0.916878186604 0.0479731745066 0.0 
217.0 0.735703881164 0.549278466276 0.0 
218.0 -0.735703881164 -0.549278466276 0.0 
219.0 0.549278466276 -0.735703881164 0.0 
220.0 -0.549278466276 0.735703881164 0.0 
221.0 -0.257850089058 0.69205056308 0.0 
222.0 0.69205056308 0.257850089058 0.0 
223.0 -0.69205056308 -0.257850089058 0.0 
224.0 0.257850089058 -0.69205056308 0.0 
225.0 -0.598456979722 -0.429849345181 0.0 
226.0 0.429849345181 -0.598456979722 0.0 
227.0 0.598456979722 0.429849345181 0.0 
228.0 -0.429849345181 0.598456979722 0.0 
229.0 -0.62556842744 0.387075636781 0.0 
230.0 0.387075636781 0.62556842744 0.0 
231.0 -0.387075636781 -0.62556842744 0.0 
232.0 0.62556842744 -0.387075636781 0.0 
233.0 0.0248551646968 0.736252880139 0.0 
234.0 0.736252880139 -0.0248551646968 0.0 
235.0 -0.0248551646968 -0.736252880139 0.0 
236.0 -0.736252880139 0.0248551646968 0.0 
237.0 -0.830515925532 0.401070461312 0.0 
238.0 -0.401070461312 -0.830515925532 0.0 
239.0 0.830515925532 -0.401070461312 0.0 
[...]
<PointData Scalars="solution">
<DataArray type="Float64" Name="Real part" format="ascii">
0.0100363734762
-0.00759325619604
0.010425234357
-0.00887269215291
-0.124312011429
0.101952619401
-0.124883484608
0.0895129527417
0.0203353345758
0.0293980174085
0.0323269086477
0.0307921779328
0.0235663976764
0.0148319955475
0.00359438027701
-0.00679042471597
-0.0147124300039
-0.0203528313303
-0.0215941225507
-0.0200298224468
-0.0150831186761
-0.0104892462397
-0.00631858460245
-0.00448866781193
-0.00674433750455
-0.0102237122089
-0.0137302400793
-0.0147771564855
-0.0141147626041
-0.00998473890493
-0.00378408532968
0.00351527894493
0.0108097400783
0.0163668462402
0.0198403486446
0.0192426285921
0.017451637064
0.0131135532075
0.00999662150456
0.0130813257033
0.0157261260738
0.0182911163535
0.0185077431649
0.0181682785246
0.0148085523765
0.0100827823149
0.00362852896711
-0.00366690663594
-0.010859800145
-0.0176752142725
-0.021548080016
-0.0239273531758
-0.0207048482117
-0.0204018750862
-0.0261163564353
-0.0252566626759
-0.0202811853548
-0.0110913982665
-0.000463646315207
0.0106135466027
0.019875747677
0.0243275860671
0.0243614399019
0.0165639503301
-0.0
-0.0
-0.0
-0.0
-0.000137901669303
-0.000137156094067
-0.000132150468116
-0.000115588266978
-7.92206117665e-05
-2.05858598168e-05
5.00970734949e-05
0.00013288234141
0.000108759600061
4.84712892331e-05
-2.25862804231e-05
-8.11571901565e-05
-0.000117083005197
-0.000133023361987
-0.000138015191332
-0.000137539604186
-0.000133338499047
-0.00011798861512
-8.29142272283e-05
-2.50966374331e-05
4.58514127995e-05
0.00013283086573
0.000111306111673
5.26808403206e-05
-1.80627579372e-05
-7.74206759682e-05
-0.000114633204951
-0.000131796259565
0.00368887599276
-0.00265961198119
-0.0124045565021
-0.00728857135071
0.00260065250281
-0.00334324269872
0.000664460381723
0.0105208486144
-0.00788924356947
0.0176522707779
-0.0120263926456
-0.0101951766654
0.00806272799584
-0.00539338113265
0.00124302421494
0.011250906228
0.00949843725971
-0.0122512475126
-0.0117177977386
0.0103147493458
-0.00503745827162
0.00518857126454
-0.0200894955373
0.000549529910995
0.0127063749128
0.00744220814516
0.00651499366105
-0.00382719518831
0.00118687988154
0.0196065842555
0.00844999200965
-0.0204364643507
-0.027353242018
0.0258604605007
-0.0263899380659
0.00401578086919
-0.00504015857543
0.00116318565949
-0.000394742233152
-5.74525237892e-05
0.00448614932202
0.00313979679713
0.00115734024822
0.00338342323659
0.0130784011696
-0.0031400466878
-0.00755086451186
-0.00353388969472
-0.011377172287
0.0126077620729
-0.0204314098296
0.00185667518246
-0.0128604308409
0.00668125529601
-0.00163509021708
0.0194910236251
0.00728344949089
0.00358534480231
0.00375992028549
-0.0217046920447
0.0171422678203
-0.0053198677019
0.0184453981455
-0.0081124738794
0.00967377155167
-0.0101459576372
-0.00187147451164
-0.0113979892952
-0.000223448455147
0.00101873841173
5.79206442989e-05
0.00410536349798
-0.031689907733
0.0326999864704
-0.0338314315086
0.0128079415364
0.0042029121017
0.00123008995998
-0.00139608513519
0.00297887963252
0.00793334852033
0.0173517132161
-0.00452782078196
-0.00041765864561
-0.00540275147459
-0.0233761718827
0.0102860632115
-0.00237113406639
0.0254691861583
0.0161084231028
-0.0170600797311
-0.00718771870856
0.00761832703454
0.0189609622098
0.000885569713886
-0.0240932221898
-0.00334560670235
0.00270102867062
-0.0106275242491
0.00155799100362
0.0121437601088
-0.00956576512514
-0.013796706158
-0.0114035888038
0.000326229898886
0.00220670385932
0.00649597978457
0.00788384834458
0.00244363531599
0.0123108944858
-0.00465049628313
-0.0117391677133
0.0124607936226
-0.0180523538159
-0.0092538233498
0.0171142568015
-0.0202858919109
-0.00170795985982
0.0027262530006
0.00791374254352
0.010087771772
0.0162771860705
0.00498771537761
-0.0087347498799
0.00597511144159
0.00966027246973
0.00301352163374
-0.0106683841469
0.00916422441634
0.00177859273715
0.00790328105483
-0.000574800843268
0.00396470148213
-0.0055496321827
-0.00584242256835
0.00796239872805
0.0178521357433
-0.0146176747845
-0.00959194622017
-0.0140488281809
0.0152277450027
-0.0150924215491
0.00977639299
-0.0179029702094
-0.00746263999487
0.0153199758584
-0.0232075598218
0.0290465149128
-0.00235464709064
-0.000475874716355
-0.00122673168627
0.00105892419241
-0.0425333776121
0.0213578880206
0.0372338338354
-0.0423406758882
0.00208287322804
0.0017052161988
0.00178644848117
0.00115907331323
-0.00735083674104
0.0122243326878
-0.0097524499373
0.00163935915999
-0.0043005389989
0.010722255617
-0.0231129881907
-0.000664451873271
0.0131543894306
0.0127661670241
-0.00573423548526
0.00197764316086
-0.0188816045352
0.000508866479314
-0.00579383712923
0.00264443260183
0.00496904519891
0.01410399031
-0.00335627693168
0.00139800509868
0.00708661264384
-0.000672687298307
0.00881166068307
-0.0189491287925
-0.00182991576181
0.0183423392482
0.0118181120793
-0.0119729317922
-0.00218445537474
-0.00259241597625
0.00579606483813
0.00180843686974
-0.0236927447111
-0.0248865709447
0.00126494040176
0.0263864902759
0.00613763716547
0.00190470011763
0.00547177022093
-0.000322218129021
0.000601355102604
-0.00494094842178
0.00461465476951
0.0068102782721
0.00321859093138
-0.00342816131968
-0.00709704773293
-0.00474906146036
-0.0144292381869
-0.0170440710904
0.0147554555283
-0.00408886602255
0.00064781070661
0.00130784470648
0.00283653695661
0.00627223010636
-0.0126113805422
0.0211497495775
-0.0170299086738
-0.00158695017167
-0.0050484835513
0.00552881706409
-0.0159169267465
-0.000140144348644
0.0273428444781
-0.00477767352966
0.0126926355391
-0.0255778309012
-0.0118293078209
0.00336620415542
0.00358041016204
0.0219910186266
-6.87023919765e-05
-0.022992900742
-0.012075096134
0.0157897013171
0.0173832819186
-0.00114807212612
-0.0229260550636
0.00830163542355
0.0184968374518
-0.0117936447752
0.0240425686902
-0.0113958033121
0.00514799779258
-0.00281299267294
0.0137166613196
-0.00825039891804
0.0127531562302
-0.00296478820968
-0.00309786969131
0.0135754344284
0.0117129606837
-0.0166650609295
-0.00320934379748
-0.00534302923998
0.000530308842987
-0.00688396123831
0.00595661874082
-0.00646433468066
0.000365871585743
0.000100185511245
3.52346496394e-06
0.00157051845705
0.0437315419963
-0.0496842486013
-0.0507642109227
0.0313129090547
0.0023815148629
-4.24635068814e-05
-0.000293889079753
0.000727413702014
</DataArray>
<DataArray type="Float64" Name="Imag part" format="ascii">
0.00300492776345
-0.00155101572263
-0.00347308346944
0.0115677514046
0.0280766938529
0.064819460591
-0.00167540611559
-0.0781110342065
0.0141125402717
0.0138161185321
0.0079163427601
0.000922622907821
-0.00510333724111
-0.00953624620337
-0.0111163070237
-0.0110559629252
-0.00961986503414
-0.00892002625792
-0.007905120172
-0.00813959381987
-0.00803544266801
-0.00844393324427
-0.0070112634096
-0.00782283894791
-0.0119628943034
-0.0134962555459
-0.0139437443266
-0.0126103061976
-0.0113877177074
-0.0088888254816
-0.00629585246977
-0.00294733884328
0.000987752583723
0.00504172929167
0.00923877613143
0.0119598657007
0.0131574849715
0.0097218980486
0.00390819666037
0.00457481007031
0.00204769478768
-0.00121484091784
-0.00368557609539
-0.0045427721865
-0.00326425567066
4.39815671454e-06
0.00413697315365
0.00836505789488
0.0113562517069
0.0126715665138
0.0110556534915
0.00889374537708
0.00656810607851
0.00247263120381
-0.000419529881173
-0.00172769692308
-0.00267949866569
-0.00337448333907
-0.00344139464394
-0.00263314175388
-0.000132732473358
0.00375825402655
0.00842479229054
0.010268989503
-0.0
-0.0
-0.0
-0.0
5.68293818287e-06
1.360344531e-05
3.71578885986e-05
7.24981137955e-05
0.000109879823203
0.000132892877273
0.000123899697774
-7.49290974795e-07
-7.6676676916e-05
-0.00012451643014
-0.000132532521327
-0.00010841050339
-6.99908280272e-05
-3.37923489312e-05
-9.86480894747e-07
-8.92777376496e-06
-3.26389273728e-05
-6.85223370063e-05
-0.000107120081212
-0.000132115302838
-0.000125532863528
-3.77348710172e-06
7.29308774989e-05
0.000122794691733
0.000133224419865
0.000111109701161
7.39349338039e-05
3.829991704e-05
-0.00670504980661
0.016454873254
-0.00884511253116
0.0308939596419
-0.000777349091064
-0.00822463384156
0.00451070102717
0.0130905598659
0.0353504617625
-0.00420388832225
0.0164073124704
-0.0245842127346
0.00896794351881
-0.0107522067075
-0.0131017961637
0.011492875022
0.00971451848413
-0.012109720809
0.00473234186824
0.0218312693676
0.0299199519786
-0.00749106811824
-0.0102593395785
0.0181181154199
0.00470271380736
-0.000137693854802
-0.00475256728469
-0.0117294978933
-0.0151050546825
0.0235443441903
0.0112512737298
-0.0154093397983
0.0334104934568
0.00581016999663
0.014419840808
-0.0269041757666
-0.00187206809928
0.0197209475576
-0.00633681884021
0.00718776135975
0.00552567312127
0.000722189803315
-0.00641244400236
0.000790979107873
-0.00480677134976
0.0224273261409
0.0109730395203
-0.0196654971553
-0.0111994670664
0.0157555179108
0.00389126753943
0.0202484030948
-0.0121518144393
0.000742920565661
0.00648560847309
0.0134850342721
0.0274921252725
-0.00905531350094
0.01335152357
-0.00955760324298
0.00370545509152
-0.00667503402722
0.00142644520107
-0.0159436933968
-0.00063770461124
0.0101363411758
-0.0114764484957
0.0228834145961
-0.00378428489301
-2.00503499554e-05
0.00221234771886
0.00891564694483
0.0291132591303
0.010382375271
0.0108201149865
-0.0324510383253
-0.00642667320254
0.00671435691281
-0.0080764887539
0.00921266766868
0.00422926184354
0.00571827896162
-0.0105999186991
-0.00643699569255
-0.00973648322079
0.00017322316621
0.0176555701826
0.0200644797776
0.0103848773495
0.00554967685671
-0.00974056192048
-0.016932895143
0.0111276094425
0.025423128335
-0.012783164688
-0.0111910053445
-0.00926035225472
0.0119900265993
-0.00182553862863
0.0260042933012
-0.003676128312
0.0183731336617
0.0347712962992
-0.0167237114161
-0.00715390334666
-0.00404289348858
0.00578459141925
0.00462479142353
0.0298325909393
-0.00857606618595
0.0141853986086
-0.0222413597479
0.00573065057292
-0.0113520965436
0.00843934466119
0.0147759877091
-0.000674118657887
-0.0073051941135
0.0173803414871
0.0114606910923
-0.00681151356852
0.000792763238665
-0.0026705848696
-0.0125814249167
-0.012102474478
0.0215469289063
0.0116504303424
-0.0173778902872
0.00696210665415
-0.00312850437825
0.0024364196254
-0.0112645983531
0.00613568471532
-0.00983997646552
0.00219985515051
0.0205101880314
-0.00216553809484
0.0366745232513
-0.0226631762138
0.0179366209215
0.00981904836736
0.00882871778447
0.014321930454
-0.0109755842195
-0.0158155416798
0.00533548976446
-0.00767347999921
0.0129218966669
-0.00200278000078
0.0124804212568
0.00436226834823
-0.00324758117908
0.0266134547478
-0.0330106873236
0.0169472217339
0.00848877337402
0.00349310812515
0.000408680008563
0.00101890876499
-0.00356108215712
0.0149951145699
-0.000315827557614
0.00688238912402
-0.0150512935084
-0.00860256453751
0.0147786808049
0.00128532447735
0.0144277436437
0.00135451102246
0.00028076795281
-0.00972716334824
-0.0096372031091
-0.00642089580436
-0.00855967460573
0.0293158735746
0.0187363561374
0.00536313722647
0.00911165764816
-0.00920314481676
-0.00468699560444
0.031992923737
0.0149373642435
-0.0101328717758
-0.0186172204246
-0.0159532170932
0.0137106843537
0.00866565890005
-0.0124391657569
-0.00706742841051
0.00171008148501
0.0160398524137
0.00324243075101
0.0352330396174
0.0153244515608
-0.029128413445
0.00387742494768
0.00637580945584
-0.00934371313198
0.00734250081032
-0.00556478984309
0.00992580417157
-0.0145493587454
0.0167772486764
-0.00902521660979
-0.00551432145935
0.0116814929435
-0.00673819206566
0.0257843211949
0.0151121281994
0.0317613326646
-0.000405833326478
-0.0176250997848
-0.00372676481474
-0.00353584632889
0.00454959410178
0.0071132672089
0.0303954336333
-0.000748392731676
0.0134596437614
-0.0266548564068
-0.0101267655019
0.015529029798
-0.00156619243612
0.0269361973341
0.0178925626504
-0.014401030936
0.00725220526281
-0.00718961340362
-0.0113355933828
-0.00302333604146
0.00499163161573
0.00743750154657
0.0117112238789
0.00644652917834
-0.0099970489715
0.0153591705495
0.0215791524221
-0.0100501696589
-0.00459341116986
0.0087058870387
0.00107059409994
-0.00628368685839
0.001112577763
-0.0156242238207
0.00235909279458
0.00494157131089
0.0166859372529
-0.0110285878154
0.00678611908463
-0.00700557490755
-0.0145117156077
0.00488130844997
-0.00662516057987
-0.0183549114728
0.0343861014831
0.0169618099656
-0.0064030731181
0.0108101356529
0.000640963183918
0.00450389439376
4.41570848646e-05
-0.00151782558117
0.000898933761212
0.00406310769642
0.0230761504587
0.021137033848
0.00444166642447
-0.036842371727
-0.00258292197663
0.0031022188716
-0.00386956025956
0.00436998009973
</DataArray>
</PointData>
</Piece>
</UnstructuredGrid>
</VTKFile>
