<VTKFile type="UnstructuredGrid" version="1.0" byte_order="LittleEndian" header_type="UInt64">
<UnstructuredGrid>
<Piece NumberOfPoints="368" NumberOfCells= "640">
<Points>
<DataArray NumberOfComponents="3" type="Float64">
1.0 0.0 0.0 
0.0 1.0 0.0 
-1.0 0.0 0.0 
0.0 -1.0 0.0 
0.5 0.0 0.0 
0.0 0.5 0.0 
-0.5 0.0 0.0 
0.0 -0.5 0.0 
0.995184726651 0.0980171405408 0.0 
0.980785280308 0.195090322496 0.0 
0.956940335511 0.290284677984 0.0 
0.923879532096 0.382683433367 0.0 
0.881921263713 0.471396738015 0.0 
0.831469611372 0.555570234413 0.0 
0.773010452064 0.634393285746 0.0 
0.707106779519 0.707106782854 0.0 
0.63439328251 0.77301045472 0.0 
0.555570231508 0.831469613313 0.0 
0.471396735458 0.881921265079 0.0 
0.382683431182 0.923879533001 0.0 
0.29028467633 0.956940336013 0.0 
0.195090321406 0.980785280525 0.0 
0.0980171400308 0.995184726702 0.0 
-0.0980171405408 0.995184726651 0.0 
-0.195090322496 0.980785280308 0.0 
-0.290284677984 0.956940335511 0.0 
-0.382683433367 0.923879532096 0.0 
-0.471396738015 0.881921263713 0.0 
-0.555570234413 0.831469611372 0.0 
-0.634393285746 0.773010452064 0.0 
-0.707106782854 0.707106779519 0.0 
-0.77301045472 0.63439328251 0.0 
-0.831469613313 0.555570231508 0.0 
-0.881921265079 0.471396735458 0.0 
-0.923879533001 0.382683431182 0.0 
-0.956940336013 0.29028467633 0.0 
-0.980785280525 0.195090321406 0.0 
-0.995184726702 0.0980171400308 0.0 
-0.995184726651 -0.0980171405408 0.0 
-0.980785280308 -0.195090322496 0.0 
-0.956940335511 -0.290284677984 0.0 
-0.923879532096 -0.382683433367 0.0 
-0.881921263713 -0.471396738015 0.0 
-0.831469611372 -0.555570234413 0.0 
-0.773010452064 -0.634393285746 0.0 
-0.707106779519 -0.707106782854 0.0 
-0.63439328251 -0.77301045472 0.0 
-0.555570231508 -0.831469613313 0.0 
-0.471396735458 -0.881921265079 0.0 
-0.382683431182 -0.923879533001 0.0 
-0.29028467633 -0.956940336013 0.0 
-0.195090321406 -0.980785280525 0.0 
-0.0980171400308 -0.995184726702 0.0 
0.0980171405408 -0.995184726651 0.0 
0.195090322496 -0.980785280308 0.0 
0.290284677984 -0.956940335511 0.0 
0.382683433367 -0.923879532096 0.0 
0.471396738015 -0.881921263713 0.0 
0.555570234413 -0.831469611372 0.0 
0.634393285746 -0.773010452064 0.0 
0.707106782854 -0.707106779519 0.0 
0.77301045472 -0.63439328251 0.0 
0.831469613313 -0.555570231508 0.0 
0.881921265079 -0.471396735458 0.0 
0.923879533001 -0.382683431182 0.0 
0.956940336013 -0.29028467633 0.0 
0.980785280525 -0.195090321406 0.0 
0.995184726702 -0.0980171400308 0.0 
0.490392640154 0.0975451612479 0.0 
0.461939766048 0.191341716683 0.0 
0.415734805686 0.277785117206 0.0 
0.353553389759 0.353553391427 0.0 
0.277785115754 0.415734806656 0.0 
0.191341715591 0.461939766501 0.0 
0.0975451607029 0.490392640262 0.0 
-0.0975451612479 0.490392640154 0.0 
-0.191341716683 0.461939766048 0.0 
-0.277785117206 0.415734805686 0.0 
-0.353553391427 0.353553389759 0.0 
-0.415734806656 0.277785115754 0.0 
-0.461939766501 0.191341715591 0.0 
-0.490392640262 0.0975451607029 0.0 
-0.490392640154 -0.0975451612479 0.0 
-0.461939766048 -0.191341716683 0.0 
-0.415734805686 -0.277785117206 0.0 
-0.353553389759 -0.353553391427 0.0 
-0.277785115754 -0.415734806656 0.0 
-0.191341715591 -0.461939766501 0.0 
-0.0975451607029 -0.490392640262 0.0 
0.0975451612479 -0.490392640154 0.0 
0.191341716683 -0.461939766048 0.0 
0.277785117206 -0.415734805686 0.0 
0.353553391427 -0.353553389759 0.0 
0.415734806656 -0.277785115754 0.0 
0.461939766501 -0.191341715591 0.0 
0.490392640262 -0.0975451607029 0.0 
0.213535716974 0.704302312577 0.0 
-0.704302312577 0.213535716974 0.0 
-0.213535716974 -0.704302312577 0.0 
0.704302312577 -0.213535716974 0.0 
-0.569053131718 0.467804003043 0.0 
0.467804003043 0.569053131718 0.0 
-0.467804003043 -0.569053131718 0.0 
0.569053131718 -0.467804003043 0.0 
0.733048365471 0.0728158336813 0.0 
-0.0728158336813 0.733048365471 0.0 
-0.733048365471 -0.0728158336813 0.0 
0.0728158336813 -0.733048365471 0.0 
-0.650386305 -0.347536894292 0.0 
0.347536894292 -0.650386305 0.0 
-0.347536894292 0.650386305 0.0 
0.650386305 0.347536894292 0.0 
-0.730970137907 0.390388760085 0.0 
0.390388760085 0.730970137907 0.0 
-0.390388760085 -0.730970137907 0.0 
0.730970137907 -0.390388760085 0.0 
0.829295959711 -0.0770073768987 0.0 
0.0770073768987 0.829295959711 0.0 
-0.0770073768987 -0.829295959711 0.0 
-0.829295959711 0.0770073768987 0.0 
-0.646751382176 -0.524761444919 0.0 
0.524761444919 -0.646751382176 0.0 
0.646751382176 0.524761444919 0.0 
-0.524761444919 0.646751382176 0.0 
-0.239382805287 0.801676508446 0.0 
0.801676508446 0.239382805287 0.0 
-0.801676508446 -0.239382805287 0.0 
0.239382805287 -0.801676508446 0.0 
0.651769636103 -0.0641937059206 0.0 
0.0641937059206 0.651769636103 0.0 
-0.651769636103 0.0641937059206 0.0 
-0.0641937059206 -0.651769636103 0.0 
-0.308728691761 -0.577590759382 0.0 
0.577590759382 -0.308728691761 0.0 
0.308728691761 0.577590759382 0.0 
-0.577590759382 0.308728691761 0.0 
-0.50626253367 -0.415478925683 0.0 
0.415478925683 -0.50626253367 0.0 
-0.415478925683 0.50626253367 0.0 
0.50626253367 0.415478925683 0.0 
-0.190114190847 0.626722494698 0.0 
0.626722494698 0.190114190847 0.0 
-0.626722494698 -0.190114190847 0.0 
0.190114190847 -0.626722494698 0.0 
0.294550644834 0.82313260067 0.0 
-0.82313260067 0.294550644834 0.0 
-0.294550644834 -0.82313260067 0.0 
0.82313260067 -0.294550644834 0.0 
0.520764568168 0.704458577616 0.0 
-0.704458577616 0.520764568168 0.0 
-0.520764568168 -0.704458577616 0.0 
0.704458577616 -0.520764568168 0.0 
0.873195014147 0.0428698961416 0.0 
-0.0428698961416 0.873195014147 0.0 
-0.873195014147 -0.0428698961416 0.0 
0.0428698961416 -0.873195014147 0.0 
-0.749852356822 -0.44947614322 0.0 
0.44947614322 -0.749852356822 0.0 
0.749852356822 0.44947614322 0.0 
-0.44947614322 0.749852356822 0.0 
0.179155725368 0.590597279163 0.0 
-0.590597279163 0.179155725368 0.0 
-0.179155725368 -0.590597279163 0.0 
0.590597279163 -0.179155725368 0.0 
0.391530101187 0.477080810702 0.0 
-0.477080810702 0.391530101187 0.0 
-0.391530101187 -0.477080810702 0.0 
0.477080810702 -0.391530101187 0.0 
0.614200666039 0.0604934856927 0.0 
-0.0604934856927 0.614200666039 0.0 
-0.614200666039 -0.0604934856927 0.0 
0.0604934856927 -0.614200666039 0.0 
-0.290933112937 0.54429756913 0.0 
-0.54429756913 -0.290933112937 0.0 
0.290933112937 -0.54429756913 0.0 
0.54429756913 0.290933112937 0.0 
-0.615709428005 -0.637086188875 0.0 
0.637086188875 -0.615709428005 0.0 
0.615709428005 0.637086188875 0.0 
-0.637086188875 0.615709428005 0.0 
0.18764797381 0.865889802588 0.0 
-0.18764797381 -0.865889802588 0.0 
-0.865889802588 0.18764797381 0.0 
0.865889802588 -0.18764797381 0.0 
0.814753881174 0.352711579568 0.0 
-0.814753881174 -0.352711579568 0.0 
0.352711579568 -0.814753881174 0.0 
-0.352711579568 0.814753881174 0.0 
-0.871787636413 -0.157997559036 0.0 
0.871787636413 0.157997559036 0.0 
-0.157997559036 0.871787636413 0.0 
0.157997559036 -0.871787636413 0.0 
0.306461221915 0.669749121706 0.0 
-0.669749121706 0.306461221915 0.0 
-0.306461221915 -0.669749121706 0.0 
0.669749121706 -0.306461221915 0.0 
0.116678554046 0.728892891067 0.0 
-0.728892891067 0.116678554046 0.0 
0.728892891067 -0.116678554046 0.0 
-0.116678554046 -0.728892891067 0.0 
-0.502001745149 0.541367843571 0.0 
0.541367843571 0.502001745149 0.0 
-0.541367843571 -0.502001745149 0.0 
0.502001745149 -0.541367843571 0.0 
0.719173304544 0.170095439672 0.0 
-0.170095439672 0.719173304544 0.0 
-0.719173304544 -0.170095439672 0.0 
0.170095439672 -0.719173304544 0.0 
-0.792676091003 0.466332735002 0.0 
0.466332735002 0.792676091003 0.0 
-0.466332735002 -0.792676091003 0.0 
0.792676091003 -0.466332735002 0.0 
-0.0479731745066 -0.916878186604 0.0 
0.0479731745066 0.916878186604 0.0 
0.916878186604 -0.0479731745066 0.0 
-0.916878186604 0.0479731745066 0.0 
0.735703881164 0.549278466276 0.0 
-0.735703881164 -0.549278466276 0.0 
0.549278466276 -0.735703881164 0.0 
-0.549278466276 0.735703881164 0.0 
-0.257850089058 0.69205056308 0.0 
0.69205056308 0.257850089058 0.0 
-0.69205056308 -0.257850089058 0.0 
0.257850089058 -0.69205056308 0.0 
-0.598456979722 -0.429849345181 0.0 
0.429849345181 -0.598456979722 0.0 
0.598456979722 0.429849345181 0.0 
-0.429849345181 0.598456979722 0.0 
-0.62556842744 0.387075636781 0.0 
0.387075636781 0.62556842744 0.0 
-0.387075636781 -0.62556842744 0.0 
0.62556842744 -0.387075636781 0.0 
0.0248551646968 0.736252880139 0.0 
0.736252880139 -0.0248551646968 0.0 
-0.0248551646968 -0.736252880139 0.0 
-0.736252880139 0.0248551646968 0.0 
-0.830515925532 0.401070461312 0.0 
-0.401070461312 -0.830515925532 0.0 
0.830515925532 -0.401070461312 0.0 
0.401070461312 0.830515925532 0.0 
-0.297402722727 0.881616858584 0.0 
-0.881616858584 -0.297402722727 0.0 
0.297402722727 -0.881616858584 0.0 
0.881616858584 0.297402722727 0.0 
-0.273888662385 -0.512333823171 0.0 
0.512333823171 -0.273888662385 0.0 
-0.512333823171 0.273888662385 0.0 
0.273888662385 0.512333823171 0.0 
0.578154393363 -0.0569073204685 0.0 
-0.0569073204685 -0.578154393363 0.0 
0.0569073204685 0.578154393363 0.0 
-0.578154393363 0.0569073204685 0.0 
-0.449101795069 -0.368522079727 0.0 
0.368522079727 -0.449101795069 0.0 
0.449101795069 0.368522079727 0.0 
-0.368522079727 0.449101795069 0.0 
0.555922499231 0.168674599229 0.0 
-0.168674599229 0.555922499231 0.0 
-0.555922499231 -0.168674599229 0.0 
0.168674599229 -0.555922499231 0.0 
0.12114719733 0.917606791226 0.0 
-0.917606791226 0.12114719733 0.0 
-0.12114719733 -0.917606791226 0.0 
0.917606791226 -0.12114719733 0.0 
-0.695656384586 -0.610525233734 0.0 
0.610525233734 -0.695656384586 0.0 
-0.610525233734 0.695656384586 0.0 
0.695656384586 0.610525233734 0.0 
-0.188078954285 -0.784542538309 0.0 
0.188078954285 0.784542538309 0.0 
0.784542538309 -0.188078954285 0.0 
-0.784542538309 0.188078954285 0.0 
-0.548071419251 -0.592403152042 0.0 
0.592403152042 -0.548071419251 0.0 
0.548071419251 0.592403152042 0.0 
-0.592403152042 0.548071419251 0.0 
[...]
<PointData Scalars="solution">
<DataArray type="Float64" Name="Real part" format="ascii">
-0.602611381444
0.40204258362
-0.966024092037
0.410816648228
1.0
-1.0
1.0
-1.0
-0.575460829838
-0.594547279567
-0.57511132241
-0.574755875994
-0.534370699481
-0.53277526145
-0.476458821126
-0.427663755836
-0.340322373588
-0.268268071396
-0.156628984892
-0.0438690159091
0.0777824443944
0.199992697731
0.305336138376
0.456827877998
0.503039774354
0.484195322038
0.444931768545
0.344184877954
0.241678166417
0.0889898307004
-0.072095468579
-0.234356790863
-0.413314613152
-0.558347503896
-0.704710603107
-0.785885994884
-0.892351629087
-0.927686997068
-0.911565927323
-0.892686045627
-0.798533688391
-0.702743517346
-0.550238468471
-0.412514913221
-0.239797912585
-0.0733927516397
0.087053061139
0.236115290574
0.352846369858
0.452683950803
0.474411224226
0.501081836022
0.465921889873
0.298948606164
0.19741962044
0.0777580646524
-0.0431730754992
-0.153692607505
-0.266019316229
-0.34851577434
-0.428490939563
-0.467814413409
-0.528225459513
-0.545992362014
-0.581754012102
-0.564148183618
-0.592989810184
-0.586160788107
0.998178597306
0.971542157666
0.863083048542
0.60569986291
0.173693582894
-0.360273318398
-0.817986524988
-0.817986523018
-0.360273311996
0.173693591883
0.605699871248
0.863083051623
0.971542158339
0.998178597347
0.998178597306
0.971542157666
0.863083048542
0.60569986291
0.173693582894
-0.360273318398
-0.817986524988
-0.817986523018
-0.360273311996
0.173693591883
0.605699871248
0.863083051623
0.971542158339
0.998178597347
-0.670161147782
0.441376361664
0.180247231268
0.0130781087525
0.735056291231
-0.50549870645
0.719927679032
-0.310359567898
0.0777262997185
-0.205406749601
0.319276300184
-0.516535627728
0.603406352238
-0.650005373844
0.526468158453
-0.13113182668
0.180583149576
-0.597525072057
0.584753863975
-0.434595787626
-0.315710358156
-0.206728902731
0.0960334998656
-0.257562890768
0.416716199924
-0.607827972141
-0.53761086198
0.58957585569
0.406254683917
-0.377226348792
-0.127343452475
-0.448198809153
0.462948153674
-0.724716223606
0.731866499495
-0.47936460491
0.370210641972
0.242483203551
-0.561205143539
0.879128216321
0.873028574159
-0.27775756751
0.711937994455
0.00863429652834
-0.0706298400342
0.38941742177
0.799091598112
-0.740842397113
-0.389823438041
-0.263390298718
0.503914364288
-0.489021258481
-0.573168104552
0.170010203407
0.515841337102
-0.570363822937
-0.442377048344
0.152120986923
-0.505896556402
0.00542140941263
0.0263539251075
-0.540822311985
-0.546001169644
0.558275190879
-0.740674244926
0.920088991851
-0.199097163168
0.570146651269
-0.137034606448
0.895226976055
0.667734550076
0.185751180735
0.634797032337
-0.603436606329
0.873253100872
-0.799343676831
0.275407358088
0.953591206616
-0.480731156308
0.422664567688
0.358733067171
-0.582273345047
-0.583294628934
0.31903615101
-0.193734868107
0.397772003374
-0.465023797827
-0.483332194124
-0.528598141086
-0.240822585412
-0.410073580967
0.538567054056
-0.495451275168
-0.479269955913
0.355385977415
-0.147269026062
-0.672368310558
0.554878616144
0.428686567945
-0.0741195420107
-0.581251894015
0.335274165037
0.0581576484877
-0.0842140469026
0.745019590833
-0.378100676101
0.744458319626
-0.450784526995
0.0259441006025
0.0639984905565
0.37353214223
-0.637662024764
-0.191057742132
-0.428403484197
0.480963370258
-0.57220914541
0.27535553944
0.136304045295
-0.527974746547
-0.697978087822
-0.575068628538
-0.00429462142217
-0.50267928789
0.399129005047
0.307275101688
-0.0379057280948
0.476851582255
-0.679080259255
0.703031611893
-0.561968427103
-0.247603896373
0.678762329773
0.662877671925
-0.611835697307
0.606086484185
-0.174255433726
-0.433702567164
0.0869809850752
-0.321816451007
0.303611018719
-0.332993452154
0.512341616782
-0.568235208705
-0.348777924884
0.507688667393
-0.541146141915
-0.187860681123
-0.563863388418
0.176189829558
0.604939301992
1.01138174496
-0.393244412724
0.797091149306
-0.724952698917
-0.873910498566
0.986309754938
0.901095422027
0.0120432058321
0.361888791598
0.621401534187
0.738886477887
-0.327530512767
1.01129535199
-0.73512093496
0.0511016403351
-0.696612843577
0.379774226737
-0.542415169022
0.094505229551
-0.526738319114
0.285251364305
-0.563451416012
0.261662937774
-0.470531205572
-0.254050422509
-0.0107899734114
0.611162393818
-0.526974772996
-0.570259286065
0.566989974755
-0.237132569696
-0.0826360268533
0.120531004757
-0.368836517753
0.531109704156
-0.348276196974
0.201697372744
-0.603178395161
-0.455987467409
0.619560422089
0.0289184989285
0.863621765538
0.386226182964
0.643833065447
-0.593316776126
-0.554836254891
0.0638136617573
0.565624694817
0.860760517879
-0.503170824412
0.793913315193
-0.671641013402
0.222719319599
0.25029152636
-0.701419863058
0.786377312835
0.173233558886
0.255421756761
0.699624635081
0.349933265303
-0.73983528118
-0.1921985722
-0.228170378972
0.830640000494
0.802507624644
-0.179757858116
0.359288501401
-0.259773308928
0.68601460306
-0.73711996581
-0.593926066892
0.193199572326
0.419824546304
-0.254679410388
-0.560904774898
0.475324946313
-0.645344464643
-0.0740386751687
-0.50334570455
0.0338942692953
0.2934370945
-0.558385205791
-0.55606456596
0.49229617207
-0.131806962611
-0.589025914593
-0.54560431859
0.363463576876
0.102015877196
-0.72883170745
-0.324650502634
-0.34990094659
-0.5714769861
0.487370306853
0.497057305498
0.643469115572
-0.417604728335
-0.607368798412
0.414984210662
-0.62359108747
0.618191640919
-0.378490413068
-0.127387148936
-0.237189009228
-0.167435934303
-0.0462428401974
-0.439024191597
0.851079633296
-0.681687986562
1.01625378616
0.84294816635
0.167569304306
0.530783428244
0.520302011601
-0.807688467883
0.891129937616
1.00723682781
-0.895364094259
0.0663251552721
0.98496756841
-0.273363448646
0.740227007661
</DataArray>
<DataArray type="Float64" Name="Imag part" format="ascii">
0.0306449458517
0.294280065911
-0.258195850256
0.299557720588
-3.07698838547e-16
0.0
2.36691414267e-17
0.0
0.0379983478892
0.0552910191961
0.0843040946025
0.127532491056
0.174764821508
0.24226760015
0.299189175394
0.365764369605
0.410265763551
0.482726307704
0.504258173233
0.524057054569
0.495256423932
0.468617050857
0.3885237338
0.165304897201
0.0328988164813
-0.107932067601
-0.245583339623
-0.353924911236
-0.472144148754
-0.52393099887
-0.559057402404
-0.534257893875
-0.535275446592
-0.467560234325
-0.415154513085
-0.339828292382
-0.301822124101
-0.258844718439
-0.253606769925
-0.30255853841
-0.346024410112
-0.414965284223
-0.459865192659
-0.524900820298
-0.545645241899
-0.560109552009
-0.513872112214
-0.462978050661
-0.363530005951
-0.250778689907
-0.105139005085
0.0340431637593
0.168505182521
0.38018425578
0.468436864151
0.504027227102
0.524822373791
0.496211182872
0.476472144364
0.418738666292
0.36670681999
0.293785783672
0.238910354191
0.177256833341
0.128851103411
0.0834855351731
0.0539323510979
0.0363905079082
-0.0603281682236
-0.236866704873
-0.505062027199
-0.795693204741
-0.984799745766
-0.932846791306
-0.575237381381
0.575237384183
0.932846793779
0.984799744181
0.795693198394
0.505062021936
0.236866702112
0.0603281675437
0.0603281682236
0.236866704873
0.505062027199
0.795693204741
0.984799745766
0.932846791306
0.575237381381
-0.575237384183
-0.932846793779
-0.984799744181
-0.795693198394
-0.505062021936
-0.236866702112
-0.0603281675437
0.0922614427755
-0.907195982123
0.661861075477
-0.736884747717
-0.283922888858
-0.491129583695
0.121610984364
-0.648088984168
-0.735509094907
0.636990309441
-1.04259935582
0.421101883592
-0.651206745754
-0.231448970223
0.465534695078
-0.715096746459
-0.789532902878
0.103118961382
0.159242658981
-0.475173825791
-0.570302451851
0.540858699984
0.569174281642
-1.00688672369
-0.551042790299
-0.122200297879
-0.329307103851
-0.200256874143
0.422344668079
-0.525690083739
-0.940583634172
0.377087077312
-0.674625286845
0.224944835644
-0.820980293911
0.594736424044
0.712257306585
-0.771537069795
-0.537717993491
-0.362735944258
0.0314345859821
-0.738634374206
0.426718800348
-0.798968776954
0.775493363761
-0.714706575413
-0.664700382441
-0.191619249082
0.39924383916
-0.84189223703
0.229635866352
-0.376085999197
0.0972588364229
-0.653313510439
-0.250024528051
-0.194685487327
-0.439266778251
0.519647709703
-0.887352430514
0.541678234745
-0.738025520262
0.197897755997
-0.269814271913
-0.0871258990116
-0.336946585798
-0.493559916721
0.804932472381
-0.640892270342
-0.822170113418
0.190844496069
0.567553405593
-0.823157775631
-0.579684274986
0.543667678882
-0.654147517523
0.114861356093
0.803911236602
-0.194608621537
-0.667885669995
-0.73766337614
-0.465455743909
-0.0380641740674
-0.00405058200981
-0.512470776664
0.498979734494
0.360762141435
-0.82823311804
-0.373583745227
-0.293991378912
-0.784450328538
0.365813265509
0.0844852949714
-0.833506892668
-0.379249273856
0.39368532104
0.51726382649
-0.139192369742
-0.741760256641
0.55345375576
-0.725540977854
0.329165092766
-1.0183748958
-0.734404415874
0.670347466245
-0.00986428430558
-0.60480726943
-0.164178837635
-0.545715959813
-0.733112403442
0.674069518335
-0.97334677479
0.212690707255
-0.683350946398
0.334949929336
-0.210125438222
-0.0969667800335
0.427746301935
0.48956078803
-0.277866883162
-0.691869756647
-0.02171539184
-0.637284606976
0.231766441111
-0.36254306524
0.619297406313
-0.730741189307
-0.847842741752
-0.006276773808
-0.411106422306
-0.419733936247
-0.675792983086
0.245491927183
-0.538214245198
-0.331935450773
0.378142362264
-0.70462730419
0.508153615992
-0.732914472117
0.586777270763
-1.05692198416
-0.691478823756
-0.0947067622728
-0.137934782263
0.403921096524
0.0671211172977
-0.663591016496
0.484931362209
-0.166631267432
0.896378137851
-0.684073534024
-0.0251846327319
-0.794474316645
-0.461662647296
0.494979964602
-0.00116473898355
-0.478260819552
0.349681673964
-0.896120063633
-0.828505049423
0.699701454156
-0.543594382891
0.829475609976
-0.321026791193
-0.478658321082
0.505770007474
-0.661748636171
0.336092753621
-0.241780118602
-0.585646570847
0.183502971722
-0.471559918838
0.0708435808007
0.547045406972
0.371776997112
-0.615902255494
-0.989202431861
-0.237223875789
-0.368563156713
-0.290106387053
-0.385679833228
-0.62259089694
-1.02799439993
0.583151850365
0.471217120299
0.318543681909
-0.55998948956
-0.835908246965
0.111069018267
-0.614667240907
0.508063106259
-0.794613151455
-0.221319327117
-0.71108882116
-0.91643264182
0.435446991355
0.494383673518
-0.78733179479
0.552209005736
-0.285276309697
-0.582988089773
-0.584050757208
-0.336050211442
-0.770543184499
0.733629540052
-0.285927513261
-0.625909672518
0.748688068943
-0.760408163158
-0.820567981378
-0.730281366615
0.0414259699894
0.732151351516
-0.749968028978
0.131220706345
0.1981850462
-0.75986393086
-0.722937593751
0.699951811497
-0.847296400226
0.112319143366
0.167464694747
-0.896611474859
0.463112454205
-0.621105961492
-0.180448327247
0.167882783185
-0.639336890699
0.510617243114
0.223773349196
-0.599274898446
-0.450605369771
0.0721489256407
-0.177973171337
0.122970167924
0.495404351139
-0.648691879628
-0.219570475781
0.342194356739
0.49348573817
-0.626650533816
-0.661910443042
0.398674038167
-0.081409891524
-0.169638624662
-0.561871816897
0.0439257567165
-0.509164879438
-0.197867972875
-0.666899467667
-0.1054882413
0.160930987571
-0.542453280402
0.587997240653
0.554754960774
-0.654345923482
-1.05866912972
0.805807832115
-0.389656889171
-0.597714253603
-0.127852410356
0.478502887642
-0.903493698518
0.7869365777
-0.766111902817
0.412350226128
-0.29178754817
-0.271760174962
-0.11912144238
0.929482871472
0.139930644976
-0.870196390441
-0.564464715251
</DataArray>
</PointData>
</Piece>
</UnstructuredGrid>
</VTKFile>
