<VTKFile type="UnstructuredGrid" version="1.0" byte_order="LittleEndian" header_type="UInt64">
<UnstructuredGrid>
<Piece NumberOfPoints="369.0" NumberOfCells= "638">
<Points>
<DataArray NumberOfComponents="3" type="Float64">
1.0 0.0 0.0 0.0 
2.0 0.0 0.0 0.0 
3.0 0.5 0.0 0.0 
4.0 0.0 0.5 0.0 
5.0 -0.5 0.0 0.0 
6.0 0.0 -0.5 0.0 
7.0 1.0 0.0 0.0 
8.0 0.0 1.0 0.0 
9.0 0.0 -1.0 0.0 
10.0 -1.0 0.0 0.0 
11.0 0.490392640202 0.0975451610081 0.0 
12.0 0.461939766256 0.191341716183 0.0 
13.0 0.415734806151 0.27778511651 0.0 
14.0 0.353553390593 0.353553390593 0.0 
15.0 0.27778511651 0.415734806151 0.0 
16.0 0.191341716183 0.461939766256 0.0 
17.0 0.0975451610081 0.490392640202 0.0 
18.0 -0.0975451610081 0.490392640202 0.0 
19.0 -0.191341716183 0.461939766256 0.0 
20.0 -0.27778511651 0.415734806151 0.0 
21.0 -0.353553390593 0.353553390593 0.0 
22.0 -0.415734806151 0.27778511651 0.0 
23.0 -0.461939766256 0.191341716183 0.0 
24.0 -0.490392640202 0.0975451610081 0.0 
25.0 -0.490392640202 -0.0975451610081 0.0 
26.0 -0.461939766256 -0.191341716183 0.0 
27.0 -0.415734806151 -0.27778511651 0.0 
28.0 -0.353553390593 -0.353553390593 0.0 
29.0 -0.27778511651 -0.415734806151 0.0 
30.0 -0.191341716183 -0.461939766256 0.0 
31.0 -0.0975451610081 -0.490392640202 0.0 
32.0 0.0975451610081 -0.490392640202 0.0 
33.0 0.191341716183 -0.461939766256 0.0 
34.0 0.27778511651 -0.415734806151 0.0 
35.0 0.353553390593 -0.353553390593 0.0 
36.0 0.415734806151 -0.27778511651 0.0 
37.0 0.461939766256 -0.191341716183 0.0 
38.0 0.490392640202 -0.0975451610081 0.0 
39.0 0.995184726672 0.0980171403296 0.0 
40.0 0.980785280403 0.195090322016 0.0 
41.0 0.956940335732 0.290284677254 0.0 
42.0 0.923879532511 0.382683432365 0.0 
43.0 0.881921264348 0.471396736826 0.0 
44.0 0.831469612303 0.55557023302 0.0 
45.0 0.773010453363 0.634393284164 0.0 
46.0 0.707106781187 0.707106781187 0.0 
47.0 0.634393284164 0.773010453363 0.0 
48.0 0.55557023302 0.831469612303 0.0 
49.0 0.471396736826 0.881921264348 0.0 
50.0 0.382683432365 0.923879532511 0.0 
51.0 0.290284677254 0.956940335732 0.0 
52.0 0.195090322016 0.980785280403 0.0 
53.0 0.0980171403296 0.995184726672 0.0 
54.0 0.0980171403296 -0.995184726672 0.0 
55.0 0.195090322016 -0.980785280403 0.0 
56.0 0.290284677254 -0.956940335732 0.0 
57.0 0.382683432365 -0.923879532511 0.0 
58.0 0.471396736826 -0.881921264348 0.0 
59.0 0.55557023302 -0.831469612303 0.0 
60.0 0.634393284164 -0.773010453363 0.0 
61.0 0.707106781187 -0.707106781187 0.0 
62.0 0.773010453363 -0.634393284164 0.0 
63.0 0.831469612303 -0.55557023302 0.0 
64.0 0.881921264348 -0.471396736826 0.0 
65.0 0.923879532511 -0.382683432365 0.0 
66.0 0.956940335732 -0.290284677254 0.0 
67.0 0.980785280403 -0.195090322016 0.0 
68.0 0.995184726672 -0.0980171403296 0.0 
69.0 -0.0980171403296 0.995184726672 0.0 
70.0 -0.195090322016 0.980785280403 0.0 
71.0 -0.290284677254 0.956940335732 0.0 
72.0 -0.382683432365 0.923879532511 0.0 
73.0 -0.471396736826 0.881921264348 0.0 
74.0 -0.55557023302 0.831469612303 0.0 
75.0 -0.634393284164 0.773010453363 0.0 
76.0 -0.707106781187 0.707106781187 0.0 
77.0 -0.773010453363 0.634393284164 0.0 
78.0 -0.831469612303 0.55557023302 0.0 
79.0 -0.881921264348 0.471396736826 0.0 
80.0 -0.923879532511 0.382683432365 0.0 
81.0 -0.956940335732 0.290284677254 0.0 
82.0 -0.980785280403 0.195090322016 0.0 
83.0 -0.995184726672 0.0980171403296 0.0 
84.0 -0.995184726672 -0.0980171403296 0.0 
85.0 -0.980785280403 -0.195090322016 0.0 
86.0 -0.956940335732 -0.290284677254 0.0 
87.0 -0.923879532511 -0.382683432365 0.0 
88.0 -0.881921264348 -0.471396736826 0.0 
89.0 -0.831469612303 -0.55557023302 0.0 
90.0 -0.773010453363 -0.634393284164 0.0 
91.0 -0.707106781187 -0.707106781187 0.0 
92.0 -0.634393284164 -0.773010453363 0.0 
93.0 -0.55557023302 -0.831469612303 0.0 
94.0 -0.471396736826 -0.881921264348 0.0 
95.0 -0.382683432365 -0.923879532511 0.0 
96.0 -0.290284677254 -0.956940335732 0.0 
97.0 -0.195090322016 -0.980785280403 0.0 
98.0 -0.0980171403296 -0.995184726672 0.0 
99.0 0.466971882124 -0.568837860063 0.0 
100.0 -0.350223241085 0.658054886483 0.0 
101.0 -0.657374081135 0.35096563608 0.0 
102.0 0.213252406481 -0.705113794164 0.0 
103.0 -0.649009494942 -0.347024387055 0.0 
104.0 0.35257903368 0.656795689107 0.0 
105.0 0.704240058899 0.213740939405 0.0 
106.0 -0.741567826103 -0.0747460444777 0.0 
107.0 -0.0747460444777 0.741567826103 0.0 
108.0 -0.474142074571 -0.575064435518 0.0 
109.0 0.570088230886 0.467743143564 0.0 
110.0 -0.0713628857992 -0.741901038149 0.0 
111.0 0.733048365392 -0.0728158333525 0.0 
112.0 0.650301637758 -0.347695296597 0.0 
113.0 0.151191721365 0.7600921117 0.0 
114.0 -0.7600921117 0.151191721365 0.0 
115.0 -0.54799587356 0.54799587356 0.0 
116.0 -0.296573229667 -0.715991113298 0.0 
117.0 -0.239604368213 0.792627573005 0.0 
118.0 0.0770073775674 -0.829295959466 0.0 
119.0 0.739571251053 0.391182459537 0.0 
120.0 -0.792627573005 -0.239604368213 0.0 
121.0 0.525928686146 0.639584036576 0.0 
122.0 -0.640853235428 -0.53194835767 0.0 
123.0 0.390891081699 -0.730701641193 0.0 
124.0 0.649603772942 -0.52726794097 0.0 
125.0 0.824141949796 0.080366469007 0.0 
126.0 0.79563901091 -0.246212284228 0.0 
127.0 -0.639315629433 -0.178180190541 0.0 
128.0 0.308728692748 -0.577590759076 0.0 
129.0 -0.503336147166 -0.432579908565 0.0 
130.0 0.0500322161258 -0.661792589629 0.0 
131.0 0.409564006696 0.522360346842 0.0 
132.0 0.506262534515 -0.415478924668 0.0 
133.0 0.651769636289 0.0641937061437 0.0 
134.0 -0.190114190304 0.626722494683 0.0 
135.0 0.577590759076 0.308728692748 0.0 
136.0 0.626722494683 -0.190114190304 0.0 
137.0 -0.398394997947 0.511479793441 0.0 
138.0 -0.511479793441 0.398394997947 0.0 
139.0 0.20394350371 0.615416282513 0.0 
140.0 -0.615416282513 0.20394350371 0.0 
141.0 -0.646616307396 0.0470903864595 0.0 
142.0 0.0470903864595 0.646616307396 0.0 
143.0 -0.320086547202 -0.563803827397 0.0 
144.0 -0.172334141519 -0.625004877705 0.0 
145.0 -0.795986030007 0.296276673525 0.0 
146.0 0.297204207708 0.799207969415 0.0 
147.0 0.031262764432 0.852107011482 0.0 
148.0 -0.688571195042 0.49723569522 0.0 
149.0 -0.852107011482 0.031262764432 0.0 
150.0 -0.499399329548 0.691132425156 0.0 
151.0 -0.447411252305 -0.725869747797 0.0 
152.0 -0.196899890442 -0.829634951409 0.0 
153.0 -0.373763884149 0.790321402568 0.0 
154.0 0.296414606583 -0.824376130085 0.0 
155.0 -0.128305733939 0.864780318398 0.0 
156.0 -0.864780318398 -0.128305733939 0.0 
157.0 -0.587128521858 -0.647755709564 0.0 
158.0 -0.792499350879 -0.372950577649 0.0 
159.0 -0.0428698955512 -0.873195014018 0.0 
160.0 0.647755709564 0.587128521858 0.0 
161.0 0.520766172843 -0.702217881909 0.0 
162.0 0.449476141976 0.749852357631 0.0 
163.0 0.85003074636 0.211175483315 0.0 
164.0 0.873195014018 -0.0428698955512 0.0 
165.0 0.790321402568 -0.373763884149 0.0 
166.0 -0.544297569573 -0.290933112208 0.0 
167.0 0.391530102156 -0.477080809851 0.0 
168.0 0.179155725915 -0.590597278942 0.0 
169.0 0.590597278942 0.179155725915 0.0 
170.0 0.477080809851 0.391530102156 0.0 
171.0 0.614200666092 -0.0604934855464 0.0 
172.0 0.544297569573 -0.290933112208 0.0 
173.0 -0.255446335639 0.532527651827 0.0 
174.0 -0.586494525183 -0.0818719301105 0.0 
175.0 -0.0341206218479 -0.591197618546 0.0 
176.0 -0.0835767872196 0.584695505933 0.0 
177.0 0.300017191708 0.510552064747 0.0 
178.0 -0.393912922008 -0.442166768182 0.0 
179.0 -0.77996611913 0.416900576339 0.0 
180.0 0.142280567258 0.876169518311 0.0 
181.0 -0.868548303977 0.195854500602 0.0 
182.0 -0.645386649313 0.613360591037 0.0 
183.0 -0.368471735357 -0.807555177607 0.0 
184.0 -0.531576354327 0.284133480996 0.0 
185.0 0.730287998968 0.504884921765 0.0 
186.0 0.61725899257 -0.637327121246 0.0 
187.0 0.824212687125 0.325039010356 0.0 
188.0 0.871787636652 -0.157997558373 0.0 
189.0 -0.744963706256 -0.479589395455 0.0 
190.0 0.744963706256 -0.479589395455 0.0 
191.0 0.18764797472 -0.865889802143 0.0 
192.0 -0.449330014821 0.601610939838 0.0 
193.0 -0.598451028426 0.448163008605 0.0 
194.0 -0.705885797205 0.248317564796 0.0 
195.0 -0.74983579308 0.039323333144 0.0 
196.0 0.250586833867 0.707841383253 0.0 
197.0 0.0385921132269 0.748882746973 0.0 
198.0 -0.184853452655 -0.727756306846 0.0 
199.0 -0.383968792818 -0.644113876624 0.0 
200.0 -0.260096132894 0.692400193968 0.0 
201.0 -0.597421571773 -0.43575107271 0.0 
202.0 -0.69233499175 -0.254690497821 0.0 
203.0 0.3866153092 -0.62690586929 0.0 
204.0 0.114271087685 -0.730698630036 0.0 
205.0 0.432937297591 0.602890105443 0.0 
206.0 0.727049128027 0.117089083174 0.0 
207.0 0.672084396823 0.307016454772 0.0 
208.0 0.541704555901 -0.502383615238 0.0 
209.0 0.718167055139 -0.17123368587 0.0 
210.0 -0.315031070007 0.866202893447 0.0 
211.0 0.400005494531 -0.828128739496 0.0 
212.0 -0.868353812746 -0.302578481334 0.0 
213.0 0.545199499018 0.743175304997 0.0 
214.0 0.0353967578739 -0.927007287669 0.0 
215.0 -0.680522426845 -0.630463851796 0.0 
216.0 0.910698771082 0.127357095707 0.0 
217.0 0.865443529557 -0.306552656903 0.0 
218.0 0.395758348162 0.826520086024 0.0 
219.0 -0.0484522482844 0.915242283892 0.0 
220.0 -0.467354777779 0.7882509971 0.0 
221.0 -0.915055153749 -0.0493374942492 0.0 
222.0 -0.548767941028 -0.734077520081 0.0 
223.0 -0.130128916476 -0.907097893195 0.0 
224.0 -0.167618481435 0.719698765107 0.0 
225.0 0.599860660516 -0.430932692414 0.0 
226.0 -0.725130818904 -0.168558208688 0.0 
227.0 0.628434579116 0.3878888721 0.0 
228.0 0.0238534050085 -0.74408170876 0.0 
229.0 0.689891551799 -0.258787293372 0.0 
230.0 0.305093435039 -0.669388826892 0.0 
231.0 0.737656620071 0.0250177122401 0.0 
232.0 0.501093813418 0.541634269745 0.0 
233.0 -0.543012126457 -0.509278317585 0.0 
234.0 -0.596138221154 0.691709676676 0.0 
235.0 -0.90633222713 0.111377509368 0.0 
236.0 0.243879057543 0.881455905723 0.0 
237.0 -0.286932637515 -0.868395745021 0.0 
238.0 0.115881157915 0.582573921578 0.0 
239.0 -0.590589275479 0.1114425801 0.0 
240.0 -0.420774940267 0.429142855718 0.0 
241.0 -0.227309067918 -0.548772634617 0.0 
242.0 0.467725943784 -0.79488782785 0.0 
243.0 -0.890214564777 -0.218269116141 0.0 
244.0 -0.217858428456 0.899546982693 0.0 
245.0 0.612076792016 0.690001019596 0.0 
246.0 0.919229075564 0.0490966556909 0.0 
247.0 -0.671728186754 0.133615043863 0.0 
248.0 0.133615043863 0.671728186754 0.0 
249.0 -0.48428903396 0.48428903396 0.0 
250.0 -0.262095336522 -0.632754116067 0.0 
251.0 0.806656445426 0.463683128922 0.0 
252.0 0.700708781639 -0.611942463309 0.0 
253.0 -0.546139592249 -0.194975768912 0.0 
254.0 0.273825616526 -0.512367521804 0.0 
255.0 -0.163604838071 0.53925561178 0.0 
256.0 0.0846828152663 -0.573683558666 0.0 
257.0 0.512333822691 0.273888663131 0.0 
258.0 0.449101795838 -0.368522078905 0.0 
259.0 -0.465535327512 -0.345775741663 0.0 
260.0 0.389313940394 0.430022963401 0.0 
261.0 0.57815439332 0.0569073207092 0.0 
262.0 0.555922499435 -0.168674598819 0.0 
263.0 0.36338124362 0.743804868756 0.0 
264.0 -0.0510786932932 0.826246075992 0.0 
265.0 -0.826246075992 -0.0510786932932 0.0 
266.0 -0.111095382506 -0.820334948046 0.0 
267.0 -0.416567343661 0.715376306007 0.0 
268.0 -0.50150810628 -0.658620702936 0.0 
269.0 -0.843075464023 0.366879841155 0.0 
270.0 -0.773437071287 0.497164110373 0.0 
271.0 0.0449604503755 0.929081179917 0.0 
272.0 -0.478786599378 -0.797481456355 0.0 
273.0 0.118631914501 -0.919632611271 0.0 
274.0 0.894119158651 -0.239227499755 0.0 
275.0 -0.734163886839 -0.566393024421 0.0 
276.0 -0.577247046503 0.351064211987 0.0 
277.0 -0.687890979163 -0.421936646394 0.0 
278.0 0.187872350186 -0.784968336665 0.0 
279.0 0.759365625571 0.275657277088 0.0 
280.0 0.548246951785 -0.592519564406 0.0 
281.0 0.796899036448 -0.126689143844 0.0 
282.0 -0.350249990067 0.574246985252 0.0 
283.0 0.282829126207 0.610396434612 0.0 
284.0 -0.0279370929665 0.671987006095 0.0 
285.0 -0.67215416264 -0.0277891291043 0.0 
286.0 -0.103875603253 -0.664660299025 0.0 
287.0 -0.396539429332 -0.543364142395 0.0 
288.0 -0.722002942849 0.560670526897 0.0 
289.0 -0.867303848828 0.288831651697 0.0 
290.0 0.653261484227 0.475392564153 0.0 
291.0 0.691515427803 -0.418320310791 0.0 
292.0 0.204006943606 0.542878213669 0.0 
293.0 -0.337836591418 0.472246892954 0.0 
294.0 -0.580576175837 0.0187264355528 0.0 
295.0 0.0190342637485 0.579387898493 0.0 
296.0 -0.306011466515 -0.492626799525 0.0 
297.0 -0.131963497564 -0.564728260989 0.0 
298.0 0.320543124025 0.876204155905 0.0 
299.0 -0.550360081218 0.753258034851 0.0 
300.0 -0.932074844768 0.0391199414116 0.0 
301.0 -0.220271080009 -0.906621347915 0.0 
302.0 -0.61842352706 0.283235406626 0.0 
303.0 -0.739588202982 0.347142226629 0.0 
304.0 -0.697327355431 0.420587178666 0.0 
305.0 -0.451256343623 0.347894744272 0.0 
306.0 -0.53996850012 0.181925972939 0.0 
307.0 0.217028477548 0.80495337768 0.0 
308.0 -0.827383089474 0.105801965782 0.0 
309.0 -0.547650017679 0.629161901254 0.0 
310.0 -0.266746189127 -0.789866658836 0.0 
311.0 0.67408436233 -0.0105333191254 0.0 
312.0 0.248229399531 -0.62680367226 0.0 
313.0 0.484097805077 0.469201442313 0.0 
314.0 0.554628664845 0.383259341024 0.0 
315.0 0.618741818825 -0.267692435429 0.0 
316.0 0.566332661967 -0.365743071485 0.0 
317.0 0.14128291527 -0.658033405641 0.0 
318.0 -0.56520199083 -0.365397775923 0.0 
319.0 -0.617826548831 -0.266944152674 0.0 
320.0 0.658033405641 0.14128291527 0.0 
321.0 0.468642198512 -0.483056223292 0.0 
322.0 0.382346875993 -0.553876964231 0.0 
323.0 0.625627362829 0.248111321722 0.0 
324.0 0.662010226131 -0.12129008857 0.0 
325.0 -0.672932592453 -0.106229100584 0.0 
326.0 -0.462188539907 -0.500490714449 0.0 
327.0 -0.10879851928 0.668934319584 0.0 
328.0 -0.0270946979532 -0.680726650822 0.0 
329.0 -0.281225977998 0.616790442442 0.0 
330.0 0.355585331176 0.58059892815 0.0 
331.0 -0.793189412785 0.225056239767 0.0 
332.0 0.0945122336109 0.812283501346 0.0 
333.0 -0.627790135689 0.534436606363 0.0 
334.0 -0.372696483883 -0.727897231595 0.0 
335.0 -0.722872477948 -0.327241295426 0.0 
336.0 0.46269827953 -0.644236563372 0.0 
337.0 -0.328050994 0.729756072406 0.0 
338.0 0.424922345932 0.678203843116 0.0 
339.0 0.772965501731 0.179605850398 0.0 
340.0 0.750509738007 -0.556582012013 0.0 
341.0 0.844644394784 0.399541519462 0.0 
342.0 0.59836770936 -0.714625030151 0.0 
343.0 -0.811650657019 -0.445538879433 0.0 
344.0 0.882975340693 0.278632786753 0.0 
345.0 0.261885139862 -0.89453965632 0.0 
346.0 0.726315464756 0.584169681494 0.0 
347.0 0.926569035622 -0.100440064525 0.0 
348.0 0.817601418831 -0.447377138734 0.0 
349.0 -0.790001298995 -0.13124392804 0.0 
350.0 0.278704775998 -0.7429097458 0.0 
351.0 -0.132270664271 0.788984111721 0.0 
352.0 -0.02539949505 -0.800426065738 0.0 
353.0 0.579625584848 0.542296507179 0.0 
354.0 -0.548026543733 -0.58394685411 0.0 
355.0 0.792988197145 -0.0273981383001 0.0 
356.0 0.723533806167 -0.328955813827 0.0 
357.0 -0.138834399308 0.93594549517 0.0 
358.0 0.486437094528 0.811571262076 0.0 
359.0 -0.404546872678 0.85534249758 0.0 
360.0 -0.635420041012 -0.701077978431 0.0 
361.0 -0.0464271727873 -0.945046812591 0.0 
362.0 -0.93594549517 -0.138834399308 0.0 
363.0 -0.482710466266 -0.258014119659 0.0 
364.0 0.347228591002 -0.423099262321 0.0 
365.0 0.158884310393 -0.523771377699 0.0 
366.0 0.523771377699 0.158884310393 0.0 
367.0 0.423099262321 0.347228591002 0.0 
368.0 0.544704048822 -0.0536486661828 0.0 
369.0 0.482710466266 -0.258014119659 0.0 
</DataArray>
</Points>
<Cells>
<DataArray type="Int32" Name="connectivity">
59 342 161 
87 343 158 
160 346 46 
40 344 163 
154 345 57 
165 348 65 
164 347 7 
19 173 20 
15 177 16 
4 176 18 
31 175 6 
5 174 25 
28 178 29 
177 292 16 
4 295 176 
173 293 20 
31 297 175 
5 294 174 
178 296 29 
113 248 196 
197 248 113 
116 250 199 
114 247 194 
195 247 114 
115 249 192 
193 249 115 
198 250 116 
156 243 120 
155 244 117 
123 242 161 
160 245 121 
164 246 125 
158 212 87 
163 216 40 
57 211 154 
65 217 165 
154 211 123 
120 212 158 
117 210 153 
159 214 118 
122 215 157 
121 213 162 
125 216 163 
165 217 126 
158 335 120 
161 336 123 
153 337 117 
163 339 125 
162 338 121 
53 180 52 
77 182 76 
82 181 81 
95 183 94 
120 349 156 
123 350 154 
117 351 155 
121 353 160 
118 352 159 
157 354 122 
125 355 164 
126 356 165 
161 242 59 
46 245 160 
7 246 164 
181 289 81 
77 288 182 
168 312 254 
171 311 261 
170 313 260 
258 316 172 
172 315 262 
257 314 170 
253 319 166 
167 321 258 
256 317 168 
166 318 259 
254 322 167 
261 320 169 
262 324 171 
169 323 257 
17 292 238 
238 295 17 
30 296 241 
241 297 30 
239 294 24 
21 293 240 
53 271 180 
183 272 94 
142 248 197 
196 248 139 
141 247 195 
199 250 143 
192 249 137 
194 247 140 
138 249 193 
144 250 198 
254 312 128 
261 311 133 
260 313 131 
132 316 258 
135 314 257 
262 315 136 
88 343 87 
60 342 59 
57 345 56 
46 346 45 
41 344 40 
65 348 64 
7 347 68 
16 292 17 
29 296 30 
17 295 4 
20 293 21 
30 297 31 
24 294 5 
22 184 23 
19 255 173 
15 260 177 
175 256 6 
174 253 25 
176 255 18 
28 259 178 
173 255 134 
130 256 175 
127 253 174 
134 255 176 
178 259 129 
177 260 131 
259 318 129 
133 320 261 
130 317 256 
127 319 253 
258 321 132 
128 322 254 
136 324 262 
257 323 135 
182 234 76 
82 235 181 
180 236 52 
95 237 183 
167 364 254 
166 363 253 
258 364 167 
168 365 256 
170 367 257 
259 363 166 
257 366 169 
261 368 171 
172 369 258 
171 368 262 
254 365 168 
169 366 261 
260 367 170 
262 369 172 
189 277 158 
164 281 188 
154 278 191 
186 280 161 
187 279 163 
187 341 119 
124 340 190 
179 270 79 
79 269 179 
165 291 190 
160 290 185 
61 252 186 
185 251 44 
180 271 147 
151 272 183 
277 335 158 
280 336 161 
279 339 163 
196 307 113 
114 308 195 
192 309 115 
116 310 198 
164 355 281 
154 350 278 
174 325 127 
175 328 130 
176 327 134 
129 326 178 
134 329 173 
131 330 177 
119 341 251 
252 340 124 
113 332 197 
194 331 114 
199 334 116 
115 333 193 
165 356 291 
160 353 290 
44 346 185 
187 344 42 
67 347 188 
186 342 61 
189 343 89 
55 345 191 
63 348 190 
76 234 75 
83 235 82 
52 236 51 
96 237 95 
118 273 191 
126 274 188 
189 275 122 
185 290 119 
190 291 124 
115 309 182 
181 308 114 
113 307 180 
183 310 116 
119 279 187 
124 280 186 
191 278 118 
122 277 189 
188 281 126 
184 306 23 
22 305 184 
184 305 138 
140 306 184 
104 263 196 
195 265 106 
198 266 110 
100 267 192 
197 264 107 
108 268 199 
196 263 146 
152 266 198 
149 265 195 
192 267 150 
147 264 197 
199 268 151 
62 252 61 
44 251 43 
114 331 181 
180 332 113 
182 333 115 
116 334 183 
147 332 180 
183 334 151 
190 348 165 
158 343 189 
163 344 187 
185 346 160 
188 347 164 
161 342 186 
191 345 154 
42 341 187 
190 340 63 
105 323 320 
318 319 103 
321 322 99 
119 251 185 
186 252 124 
311 324 111 
312 317 102 
184 302 140 
138 276 184 
313 314 109 
315 316 112 
191 273 55 
89 275 189 
188 274 67 
81 289 80 
78 288 77 
79 270 78 
80 269 79 
80 289 269 
270 288 78 
201 233 129 
134 224 200 
130 228 204 
131 232 205 
133 231 206 
127 226 202 
128 230 203 
207 227 135 
208 225 132 
136 229 209 
45 346 44 
64 348 63 
42 344 41 
68 347 67 
89 343 88 
56 345 55 
61 342 60 
238 292 139 
142 295 238 
240 293 137 
241 296 143 
141 294 239 
144 297 241 
48 213 47 
72 210 71 
40 216 39 
54 214 9 
58 211 57 
87 212 86 
91 215 90 
66 217 65 
93 222 92 
50 218 49 
69 219 8 
74 220 73 
84 221 10 
98 223 97 
117 244 210 
120 243 212 
121 245 213 
211 242 123 
125 246 216 
146 307 196 
195 308 149 
150 309 192 
198 310 152 
200 224 117 
203 230 123 
119 227 207 
202 226 120 
205 232 121 
204 228 118 
124 225 208 
206 231 125 
122 233 201 
209 229 126 
214 273 118 
122 275 215 
217 274 126 
119 290 227 
124 291 225 
166 319 318 
320 323 169 
167 322 321 
47 245 46 
59 242 58 
86 243 85 
39 246 7 
71 244 70 
171 324 311 
168 317 312 
257 367 13 
3 368 261 
37 369 262 
35 364 258 
253 363 26 
254 364 34 
12 366 257 
256 365 32 
258 369 36 
33 365 254 
262 368 38 
14 367 260 
27 363 259 
261 366 11 
122 354 233 
224 351 117 
230 350 123 
226 349 120 
232 353 121 
228 352 118 
231 355 125 
229 356 126 
208 280 124 
207 279 119 
118 278 204 
201 277 122 
126 281 209 
213 245 47 
210 244 71 
58 242 211 
212 243 86 
216 246 39 
170 314 313 
172 316 315 
103 335 277 
99 336 280 
105 339 279 
117 337 200 
120 335 202 
121 338 205 
123 336 203 
125 339 206 
182 309 234 
180 307 236 
235 308 181 
237 310 183 
281 355 111 
278 350 102 
193 276 138 
101 276 193 
145 303 269 
270 304 148 
269 303 179 
179 304 270 
193 304 101 
101 303 194 
194 303 145 
148 304 193 
145 331 194 
197 332 147 
193 333 148 
151 334 199 
137 282 192 
195 285 141 
197 284 142 
139 283 196 
143 287 199 
198 286 144 
106 285 195 
192 282 100 
196 283 104 
110 286 198 
107 284 197 
199 287 108 
291 356 112 
290 353 109 
23 306 24 
21 305 22 
140 302 194 
194 302 101 
233 326 129 
134 327 224 
130 328 228 
127 325 226 
139 248 238 
137 249 240 
238 248 142 
239 247 141 
240 249 138 
140 247 239 
143 250 241 
241 250 144 
289 331 145 
148 333 288 
181 331 289 
288 333 182 
24 306 239 
240 305 21 
55 273 54 
90 275 89 
67 274 66 
48 358 213 
72 359 210 
91 360 215 
214 361 9 
201 318 103 
99 322 203 
102 317 204 
207 323 105 
103 319 202 
111 324 209 
208 321 99 
105 320 206 
200 329 134 
205 330 131 
84 362 221 
222 360 92 
218 358 49 
69 357 219 
98 361 223 
220 359 73 
147 271 219 
222 272 151 
219 271 8 
93 272 222 
18 255 19 
35 258 36 
12 257 13 
14 260 15 
25 253 26 
33 254 34 
27 259 28 
37 262 38 
3 261 11 
6 256 32 
210 359 153 
213 358 162 
159 361 214 
215 360 157 
146 263 218 
150 267 220 
219 264 147 
221 265 149 
151 268 222 
223 266 152 
155 264 219 
220 267 153 
218 263 162 
156 265 221 
222 268 157 
159 266 223 
221 362 156 
219 357 155 
223 361 159 
162 358 218 
157 360 222 
153 359 220 
283 292 177 
282 293 173 
176 295 284 
174 294 285 
287 296 178 
175 297 286 
137 293 282 
139 292 283 
284 295 142 
285 294 141 
143 296 287 
286 297 144 
109 314 227 
232 313 109 
112 316 225 
229 315 112 
231 311 111 
230 312 102 
75 299 74 
51 298 50 
10 300 83 
97 301 96 
128 312 230 
133 311 231 
131 313 232 
225 316 132 
136 315 229 
227 314 135 
218 298 146 
152 301 223 
220 299 150 
149 300 221 
50 298 218 
74 299 220 
223 301 97 
221 300 10 
8 271 53 
94 272 93 
234 299 75 
236 298 51 
96 301 237 
83 300 235 
103 277 201 
204 278 102 
105 279 207 
99 280 208 
209 281 111 
54 273 214 
215 275 90 
66 274 217 
43 341 42 
63 340 62 
225 291 112 
227 290 109 
156 362 243 
155 357 244 
244 357 70 
243 362 85 
204 317 130 
203 322 128 
132 321 208 
202 319 127 
206 320 133 
129 318 201 
135 323 207 
209 324 136 
100 329 200 
104 330 205 
200 337 100 
205 338 104 
202 335 103 
203 336 99 
206 339 105 
146 298 236 
150 299 234 
235 300 149 
237 301 152 
226 325 106 
224 327 107 
228 328 110 
108 326 233 
269 289 145 
148 288 270 
236 307 146 
149 308 235 
234 309 150 
152 310 237 
70 357 69 
9 361 98 
49 358 48 
73 359 72 
85 362 84 
92 360 91 
106 349 226 
110 352 228 
109 353 232 
107 351 224 
111 355 231 
102 350 230 
112 356 229 
233 354 108 
239 306 140 
138 305 240 
13 367 14 
32 365 33 
38 368 3 
34 364 35 
11 366 12 
36 369 37 
26 363 27 
104 338 263 
100 337 267 
263 338 162 
267 337 153 
266 352 110 
265 349 106 
264 351 107 
108 354 268 
159 352 266 
155 351 264 
156 349 265 
268 354 157 
62 340 252 
251 341 43 
276 302 184 
101 304 303 
303 304 179 
284 327 176 
285 325 174 
286 328 175 
178 326 287 
106 325 285 
107 327 284 
110 328 286 
287 326 108 
101 302 276 
177 330 283 
173 329 282 
283 330 104 
282 329 100 
</DataArray>
<DataArray type="Int32" Name="offsets">
3
6
9
12
15
18
21
24
27
30
33
36
39
42
45
48
51
54
57
60
63
66
69
72
75
78
81
84
87
90
93
96
99
102
105
108
111
114
117
120
123
126
129
132
135
138
141
144
147
150
153
156
159
162
165
168
171
174
177
180
183
186
189
192
195
198
201
204
207
210
213
216
219
222
225
228
231
234
237
240
243
246
249
252
255
258
261
264
267
270
273
276
279
282
285
288
291
294
297
300
303
306
309
312
315
318
321
324
327
330
333
336
339
342
345
348
351
354
357
360
363
366
369
372
375
378
381
384
387
390
393
396
399
402
405
408
411
414
417
420
423
426
429
432
435
438
441
444
447
450
453
456
459
462
465
468
471
474
477
480
483
486
489
492
495
498
501
504
507
510
513
516
519
522
525
528
531
534
537
540
543
546
549
552
555
558
561
564
567
570
573
576
579
582
585
588
591
594
597
600
603
606
609
612
615
618
621
624
627
630
633
636
639
642
645
648
651
654
657
660
663
666
669
672
675
678
681
684
687
690
693
696
699
702
705
708
711
714
717
720
723
726
729
732
735
738
741
744
747
750
753
756
759
762
765
768
771
774
777
780
783
786
789
792
795
798
801
804
807
810
813
816
819
822
825
828
831
834
837
840
843
846
849
852
855
858
861
864
867
870
873
876
879
882
885
888
891
894
897
900
903
906
909
912
915
918
921
924
927
930
933
936
939
942
945
948
951
954
957
960
963
966
969
972
975
978
981
984
987
990
993
996
999
1002
1005
1008
1011
1014
1017
1020
1023
1026
1029
1032
1035
1038
1041
1044
1047
1050
1053
1056
1059
1062
1065
1068
1071
1074
1077
1080
1083
1086
1089
1092
1095
1098
1101
1104
1107
1110
1113
1116
1119
1122
1125
1128
1131
1134
1137
1140
1143
1146
1149
1152
1155
1158
1161
1164
1167
1170
1173
1176
1179
1182
1185
1188
1191
1194
1197
1200
1203
1206
1209
1212
1215
1218
1221
1224
1227
1230
1233
1236
1239
1242
1245
1248
1251
1254
1257
1260
1263
1266
1269
1272
1275
1278
1281
1284
1287
1290
1293
1296
1299
1302
1305
1308
1311
1314
1317
1320
1323
1326
1329
1332
1335
1338
1341
1344
1347
1350
1353
1356
1359
1362
1365
1368
1371
1374
1377
1380
1383
1386
1389
1392
1395
1398
1401
1404
1407
1410
1413
1416
1419
1422
1425
1428
1431
1434
1437
1440
1443
1446
1449
1452
1455
1458
1461
1464
1467
1470
1473
1476
1479
1482
1485
1488
1491
1494
1497
1500
1503
1506
1509
1512
1515
1518
1521
1524
1527
1530
1533
1536
1539
1542
1545
1548
1551
1554
1557
1560
1563
1566
1569
1572
1575
1578
1581
1584
1587
1590
1593
1596
1599
1602
1605
1608
1611
1614
1617
1620
1623
1626
1629
1632
1635
1638
1641
1644
1647
1650
1653
1656
1659
1662
1665
1668
1671
1674
1677
1680
1683
1686
1689
1692
1695
1698
1701
1704
1707
1710
1713
1716
1719
1722
1725
1728
1731
1734
1737
1740
1743
1746
1749
1752
1755
1758
1761
1764
1767
1770
1773
1776
1779
1782
1785
1788
1791
1794
1797
1800
1803
1806
1809
1812
1815
1818
1821
1824
1827
1830
1833
1836
1839
1842
1845
1848
1851
1854
1857
1860
1863
1866
1869
1872
1875
1878
1881
1884
1887
1890
1893
1896
1899
1902
1905
1908
1911
1914
1917
1920
1923
1926
1929
1932
1935
1938
1941
1944
1947
1950
1953
1956
1959
1962
1965
1968
1971
1974
1977
1980
1983
1986
1989
1992
1995
1998
2001
2004
2007
2010
2013
2016
2019
2022
2025
2028
2031
2034
2037
2040
2043
2046
2049
2052
2055
2058
2061
2064
2067
2070
2073
2076
2079
2082
2085
2088
2091
2094
2097
2100
2103
2106
2109
2112
2115
2118
2121
2124
2127
2130
2133
2136
2139
2142
2145
2148
2151
2154
2157
2160
2163
2166
2169
2172
2175
2178
2181
2184
2187
2190
2193
2196
2199
2202
2205
2208
2211
2214
2217
2220
2223
2226
2229
2232
</DataArray>
<DataArray type="UInt8" Name="types">
5 
5 
5 
5 
5 
5 
5 
5 
5 
5 
5 
5 
5 
5 
5 
5 
5 
5 
5 
5 
5 
5 
5 
5 
5 
5 
5 
5 
5 
5 
5 
5 
5 
5 
5 
5 
5 
5 
5 
5 
5 
5 
5 
5 
5 
5 
5 
5 
5 
5 
5 
5 
5 
5 
5 
5 
5 
5 
5 
5 
5 
5 
5 
5 
5 
5 
5 
5 
5 
5 
5 
5 
5 
5 
5 
5 
5 
5 
5 
5 
5 
5 
5 
5 
5 
5 
5 
5 
5 
5 
5 
5 
5 
5 
5 
5 
5 
5 
5 
5 
5 
5 
5 
5 
5 
5 
5 
5 
5 
5 
5 
5 
5 
5 
5 
5 
5 
5 
5 
5 
5 
5 
5 
5 
5 
5 
5 
5 
5 
5 
5 
5 
5 
5 
5 
5 
5 
5 
5 
5 
5 
5 
5 
5 
5 
5 
5 
5 
5 
5 
5 
5 
5 
5 
5 
5 
5 
5 
5 
5 
5 
5 
5 
5 
5 
5 
5 
5 
5 
5 
5 
5 
5 
5 
5 
5 
5 
5 
5 
5 
5 
5 
5 
5 
5 
5 
5 
5 
5 
5 
5 
5 
5 
5 
5 
5 
5 
5 
5 
5 
5 
5 
5 
5 
5 
5 
5 
5 
5 
5 
5 
5 
5 
5 
5 
5 
5 
5 
5 
5 
5 
5 
5 
5 
5 
5 
5 
5 
5 
5 
5 
5 
5 
5 
5 
5 
5 
5 
5 
5 
5 
5 
5 
5 
5 
5 
5 
5 
5 
5 
5 
5 
5 
5 
5 
5 
5 
5 
5 
5 
5 
5 
5 
5 
5 
5 
5 
5 
5 
5 
5 
5 
5 
5 
5 
5 
5 
5 
5 
5 
5 
5 
5 
5 
5 
5 
5 
5 
5 
5 
5 
5 
5 
5 
5 
5 
5 
5 
5 
5 
5 
5 
5 
5 
5 
5 
5 
5 
5 
5 
5 
5 
5 
5 
5 
5 
5 
5 
5 
5 
5 
5 
5 
5 
5 
5 
5 
5 
5 
5 
5 
5 
5 
5 
5 
5 
5 
5 
5 
5 
5 
5 
5 
5 
5 
5 
5 
5 
5 
5 
5 
5 
5 
5 
5 
5 
5 
5 
5 
5 
5 
5 
5 
5 
5 
5 
5 
5 
5 
5 
5 
5 
5 
5 
5 
5 
5 
5 
5 
5 
5 
5 
5 
5 
5 
5 
5 
5 
5 
5 
5 
5 
5 
5 
5 
5 
5 
5 
5 
5 
5 
5 
5 
5 
5 
5 
5 
5 
5 
5 
5 
5 
5 
5 
5 
5 
5 
5 
5 
5 
5 
5 
5 
5 
5 
5 
5 
5 
5 
5 
5 
5 
5 
5 
5 
5 
5 
5 
5 
5 
5 
5 
5 
5 
5 
5 
5 
5 
5 
5 
5 
5 
5 
5 
5 
5 
5 
5 
5 
5 
5 
5 
5 
5 
5 
5 
5 
5 
5 
5 
5 
5 
5 
5 
5 
5 
5 
5 
5 
5 
5 
5 
5 
5 
5 
5 
5 
5 
5 
5 
5 
5 
5 
5 
5 
5 
5 
5 
5 
5 
5 
5 
5 
5 
5 
5 
5 
5 
5 
5 
5 
5 
5 
5 
5 
5 
5 
5 
5 
5 
5 
5 
5 
5 
5 
5 
5 
5 
5 
5 
5 
5 
5 
5 
5 
5 
5 
5 
5 
5 
5 
5 
5 
5 
5 
5 
5 
5 
5 
5 
5 
5 
5 
5 
5 
5 
5 
5 
5 
5 
5 
5 
5 
5 
5 
5 
5 
5 
5 
5 
5 
5 
5 
5 
5 
5 
5 
5 
5 
5 
5 
5 
5 
5 
5 
5 
5 
5 
5 
5 
5 
5 
5 
5 
5 
5 
5 
5 
5 
5 
5 
5 
5 
5 
5 
5 
5 
5 
5 
5 
5 
5 
5 
5 
5 
5 
5 
5 
5 
5 
5 
5 
5 
5 
5 
5 
5 
5 
5 
5 
5 
5 
5 
5 
5 
5 
5 
5 
</DataArray>
<Cells>
<PointData Scalars="solution">
<DataArray type="Float64" Name="Real part" format="ascii">
</DataArray>
<DataArray type="Float64" Name="Imag part" format="ascii">
</DataArray>
</PointData>
</Piece>
</UnstructuredGrid>
</VTKFile>
