<VTKFile type="UnstructuredGrid" version="1.0" byte_order="LittleEndian" header_type="UInt64">
<UnstructuredGrid>
<Piece NumberOfPoints="494" NumberOfCells= "904">
<Points>
<DataArray NumberOfComponents="3" type="Float64">
0.0 0.0 0.0 
0.45 0.0 0.0 
0.95 0.3 0.0 
1.0 0.5 0.0 
0.95 0.7 0.0 
0.45 1.0 0.0 
0.45 1.1 0.0 
0.45 1.12 0.0 
0.05 1.3 0.0 
0.05 1.15 0.0 
0.25 1.1 0.0 
0.25 1.0 0.0 
0.0 1.0 0.0 
-0.5 0.7 0.0 
-0.6 0.5 0.0 
-0.5 0.3 0.0 
0.0642857142856 0.0 0.0 
0.128571428571 0.0 0.0 
0.192857142857 0.0 0.0 
0.257142857142 0.0 0.0 
0.321428571428 0.0 0.0 
0.385714285714 0.0 0.0 
0.505555555556 0.0333333333335 0.0 
0.561111111111 0.0666666666668 0.0 
0.616666666667 0.1 0.0 
0.672222222222 0.133333333333 0.0 
0.727777777778 0.166666666667 0.0 
0.783333333333 0.2 0.0 
0.838888888889 0.233333333333 0.0 
0.894444444444 0.266666666667 0.0 
0.9625 0.35 0.0 
0.975 0.4 0.0 
0.9875 0.45 0.0 
0.9875 0.55 0.0 
0.975 0.6 0.0 
0.9625 0.65 0.0 
0.894444444444 0.733333333333 0.0 
0.838888888889 0.766666666667 0.0 
0.783333333334 0.8 0.0 
0.727777777778 0.833333333333 0.0 
0.672222222223 0.866666666666 0.0 
0.616666666667 0.9 0.0 
0.561111111111 0.933333333333 0.0 
0.505555555556 0.966666666666 0.0 
0.45 1.05 0.0 
0.392857142857 1.14571428571 0.0 
0.335714285715 1.17142857143 0.0 
0.278571428572 1.19714285714 0.0 
0.221428571429 1.22285714286 0.0 
0.164285714286 1.24857142857 0.0 
0.107142857143 1.27428571429 0.0 
0.05 1.25 0.0 
0.05 1.2 0.0 
0.0999999999999 1.1375 0.0 
0.15 1.125 0.0 
0.2 1.1125 0.0 
0.25 1.05 0.0 
0.1875 1.0 0.0 
0.125000000001 1.0 0.0 
0.0625000000003 1.0 0.0 
-0.0555555555555 0.966666666667 0.0 
-0.111111111111 0.933333333333 0.0 
-0.166666666666 0.9 0.0 
-0.222222222222 0.866666666667 0.0 
-0.277777777777 0.833333333334 0.0 
-0.333333333333 0.8 0.0 
-0.388888888889 0.766666666667 0.0 
-0.444444444444 0.733333333333 0.0 
-0.525 0.65 0.0 
-0.55 0.6 0.0 
-0.575 0.55 0.0 
-0.575 0.45 0.0 
-0.55 0.4 0.0 
-0.525 0.35 0.0 
-0.444444444444 0.266666666667 0.0 
-0.388888888889 0.233333333333 0.0 
-0.333333333334 0.2 0.0 
-0.277777777779 0.166666666667 0.0 
-0.222222222223 0.133333333334 0.0 
-0.166666666667 0.1 0.0 
-0.111111111112 0.0666666666669 0.0 
-0.0555555555558 0.0333333333335 0.0 
0.217250980323 0.508378012363 0.0 
0.580746442967 0.5 0.0 
-0.127008761995 0.501423822879 0.0 
0.346439131386 0.74307037766 0.0 
0.0747597032654 0.725499729508 0.0 
0.404798745012 0.288760507281 0.0 
0.0414389360471 0.29881534532 0.0 
-0.367411578712 0.499699376643 0.0 
0.788048303172 0.503047244723 0.0 
0.54282146964 0.706271541376 0.0 
0.221295532231 0.201913543393 0.0 
0.394827341634 0.564315960883 0.0 
-0.120167987572 0.694423624436 0.0 
0.0415161850548 0.548852164067 0.0 
0.590166480427 0.306687489116 0.0 
-0.149900485173 0.309702252792 0.0 
0.211545844477 0.8416881887 0.0 
0.704264584886 0.645032920947 0.0 
-0.276105147487 0.644670108526 0.0 
0.348178606872 0.897277368427 0.0 
0.209995910093 0.653429260045 0.0 
0.259070179157 0.352627675724 0.0 
0.739755213876 0.352460118828 0.0 
-0.293787328593 0.368478825359 0.0 
0.0830081713551 0.143278229575 0.0 
0.358955922351 0.147162935304 0.0 
0.45611316626 0.415598720171 0.0 
0.472499142235 0.816238979238 0.0 
0.102821210994 0.420002252639 0.0 
-0.0356013648816 0.408886126858 0.0 
0.51189002477 0.192322272804 0.0 
-0.0401122131803 0.814937629618 0.0 
0.866906269074 0.405642637642 0.0 
0.857952615177 0.601053084931 0.0 
-0.0652533516239 0.198088361698 0.0 
0.0862405872884 0.864011808785 0.0 
0.323966231943 0.453989033586 0.0 
-0.39630791256 0.61481788892 0.0 
0.35 1.025 0.0 
-0.412213308047 0.392921470537 0.0 
-0.487083288024 0.500731193236 0.0 
0.895448967052 0.501869420596 0.0 
0.436681284795 0.67006673261 0.0 
-0.00872679649868 0.653928619222 0.0 
0.684260683152 0.452202779113 0.0 
-0.247533538176 0.456426188789 0.0 
0.155386239398 0.293079197431 0.0 
0.288233026749 0.571921903066 0.0 
0.503171079893 0.575615477445 0.0 
0.154686578281 0.58450373549 0.0 
0.662731080248 0.752066491249 0.0 
-0.170273559324 0.59711764687 0.0 
-0.221735650209 0.734034031782 0.0 
0.613372840317 0.603085263541 0.0 
0.171168814008 0.108560453332 0.0 
0.701082728374 0.549776360694 0.0 
0.302694779793 0.259054287361 0.0 
0.175602069378 0.750134642875 0.0 
0.685881395266 0.26476939128 0.0 
-0.248172800153 0.263389381673 0.0 
-0.0651387179044 0.574244552416 0.0 
0.572924165197 0.811095485367 0.0 
0.491669882656 0.324799328037 0.0 
-0.139472451105 0.801548771784 0.0 
0.800298765039 0.673485853748 0.0 
0.560725850122 0.404914936315 0.0 
-0.166491181786 0.403074689883 0.0 
0.603804972237 0.205897358924 0.0 
0.276560498557 0.0935010929063 0.0 
0.26239799945 0.912826206888 0.0 
-0.161595644698 0.211485398588 0.0 
-0.049970209881 0.306698548823 0.0 
-0.27762340747 0.55080781163 0.0 
0.390625 1.075 0.0 
0.453388647373 0.113296835502 0.0 
0.436318329669 0.910807705877 0.0 
0.18840036207 0.414217547822 0.0 
0.347710995656 0.652365133474 0.0 
-0.00782187043688 0.119093201976 0.0 
0.300142339629 0.824762587145 0.0 
0.0782007089438 0.639524679089 0.0 
0.321480504739 1.08901452103 0.0 
0.347816198669 0.361006602222 0.0 
0.82220509713 0.324821333965 0.0 
0.159413933393 0.914694315251 0.0 
0.263795873761 0.731779026899 0.0 
0.00135972040984 0.898402026972 0.0 
0.655011174523 0.363981969297 0.0 
0.772119749406 0.594716970982 0.0 
-0.354086647698 0.681262975514 0.0 
0.0331062680675 0.462772975999 0.0 
0.474393387516 0.514891255712 0.0 
0.136872318201 0.495193025241 0.0 
-0.373931072404 0.323045744905 0.0 
0.385753979697 0.825629106001 0.0 
0.114374679286 0.239841560107 0.0 
0.421887269703 0.208517697788 0.0 
0.771521425511 0.412106565739 0.0 
0.726880313074 0.732762797493 0.0 
0.888208507027 0.352079531437 0.0 
-0.475266631717 0.586179196276 0.0 
0.303049139183 0.97213541889 0.0 
0.382512939029 0.961513321113 0.0 
-0.0114484568409 0.719993527285 0.0 
0.0147489834835 0.221363849008 0.0 
0.884115732281 0.661267772417 0.0 
0.4382789653 0.737665732202 0.0 
0.0400714834165 0.376205090934 0.0 
-0.331723065121 0.413487382568 0.0 
-0.483728948465 0.423428237662 0.0 
-0.0645160791034 0.48326646389 0.0 
0.0444864321095 0.796750187698 0.0 
0.146533750535 0.681384970501 0.0 
0.219137373445 0.571936967856 0.0 
0.914587206767 0.429707758378 0.0 
-0.222724850437 0.361255247708 0.0 
0.931051030536 0.557433195725 0.0 
0.209406691313 0.270282977631 0.0 
0.26738464542 0.436638499283 0.0 
0.10139818424 0.0749681762123 0.0 
0.615441192357 0.685286523875 0.0 
0.394819552587 0.482228072676 0.0 
0.301921309882 0.513887197297 0.0 
0.504959163515 0.88270666885 0.0 
0.127361758424 0.78962868801 0.0 
0.752120914233 0.279999954096 0.0 
-0.404647125231 0.551452967651 0.0 
0.124174962057 1.21626762015 0.0 
0.290613718983 0.188487186943 0.0 
0.344085318266 0.0728117126299 0.0 
-0.209175571934 0.538974267951 0.0 
0.414107033134 0.369330859553 0.0 
0.142128188607 0.175073680205 0.0 
0.104754674835 0.348508861326 0.0 
-0.100247270034 0.38541027954 0.0 
-0.353484344427 0.571018108838 0.0 
-0.10612293418 0.627735120785 0.0 
0.524725129619 0.265973470868 0.0 
-0.415157998991 0.456125641243 0.0 
-0.293587483325 0.735606916024 0.0 
0.494933957855 0.759614823242 0.0 
-0.0970534417811 0.859952464101 0.0 
-0.209828309149 0.664085123811 0.0 
0.560636926402 0.148013419428 0.0 
0.518360385981 0.459038198407 0.0 
0.84134565643 0.465580566609 0.0 
0.101244084047 0.945419020304 0.0 
-0.306583650053 0.266910853413 0.0 
0.841672592673 0.534186662062 0.0 
-0.105328978902 0.139266516646 0.0 
-0.547085178352 0.500484868617 0.0 
-0.45952649004 0.35290338737 0.0 
-0.105342295658 0.258057702973 0.0 
-0.0750641832293 0.752534851852 0.0 
0.279784936736 0.667960050838 0.0 
-0.462302534679 0.642279955695 0.0 
0.0319638996648 0.063056962776 0.0 
0.654916977445 0.506979016066 0.0 
0.503363821411 0.643184992622 0.0 
0.614716208254 0.442260439689 0.0 
0.186487447134 1.1647215666 0.0 
0.448595553349 0.266669594475 0.0 
0.401408547682 1.02310719468 0.0 
0.35485651615 0.21394147069 0.0 
0.200761018789 0.344991278765 0.0 
-0.111331509224 0.440605940398 0.0 
0.447575327109 0.606863348399 0.0 
0.391147712133 0.421371234492 0.0 
0.147435845654 0.853288001323 0.0 
0.301387516554 1.02106908033 0.0 
0.213906508458 0.949306803836 0.0 
0.63231564444 0.809718065239 0.0 
0.286256854139 1.14177885271 0.0 
-0.120180278831 0.560509477052 0.0 
0.41811715907 0.0575278408151 0.0 
0.668694340597 0.199783108407 0.0 
0.338442277941 0.548362186906 0.0 
-0.207539412478 0.80059010439 0.0 
0.224863277507 0.0619438491231 0.0 
0.564818925501 0.647760041704 0.0 
0.720914577027 0.500987071304 0.0 
-0.0361217150533 0.245866242505 0.0 
0.948328463142 0.513644615786 0.0 
0.920946374762 0.613703701651 0.0 
-0.00931371432036 0.587396158644 0.0 
0.411497290272 1.10719483433 0.0 
0.564730333011 0.557963211807 0.0 
-0.219605107152 0.202533849687 0.0 
0.247871453467 0.799499925961 0.0 
0.172344473426 0.22433469835 0.0 
0.0751985332105 0.503075737373 0.0 
-0.23811495127 0.598035943944 0.0 
-0.252111423408 0.403055111377 0.0 
0.58971876604 0.749634898823 0.0 
0.23925660554 1.15322367867 0.0 
0.23658005994 0.137058600949 0.0 
-0.297303620186 0.494660403152 0.0 
-0.0608384159132 0.682222064252 0.0 
-0.0209071456756 0.525139730518 0.0 
-0.185171588053 0.476580925573 0.0 
0.298573906985 0.389203463207 0.0 
0.38213799683 0.70009205143 0.0 
0.927210806637 0.385855215937 0.0 
0.672489593898 0.601603925509 0.0 
0.0337942129158 0.947448722059 0.0 
-0.159412072379 0.743555211297 0.0 
0.30569091627 0.317712884303 0.0 
0.0437618759893 0.683316779479 0.0 
0.715187588835 0.40886026003 0.0 
0.563978804011 0.868329267124 0.0 
-0.334450875546 0.63115221865 0.0 
0.506539612279 0.386262163259 0.0 
0.0862929336153 0.582547896733 0.0 
0.806914803155 0.372123536292 0.0 
0.691216578902 0.323180949056 0.0 
-0.412628755682 0.683651329716 0.0 
0.166613693226 0.629884424817 0.0 
0.509308499072 0.095798313379 0.0 
0.0969067076594 0.300379102319 0.0 
0.303467118328 0.879283690361 0.0 
-0.513923401861 0.55524575193 0.0 
[...]
<PointData Scalars="solution">
<DataArray type="Float64" Name="Real part" format="ascii">
-0.0
-0.0
-0.0
-0.0
-0.0
-0.0
-0.0
-0.0
-0.0
-0.0
-0.0
-0.0
-0.0
-0.0
-0.0
-0.0
-0.0
-0.0
-0.0
-0.0
-0.0
-0.0
-0.0
-0.0
-0.0
-0.0
-0.0
-0.0
-0.0
-0.0
-0.0
-0.0
-0.0
-0.0
-0.0
-0.0
-0.0
-0.0
-0.0
-0.0
-0.0
-0.0
-0.0
-0.0
-0.0
-0.0
-0.0
-0.0
-0.0
-0.0
-0.0
-0.0
-0.0
-0.0
-0.0
-0.0
-0.0
-0.0
-0.0
-0.0
-0.0
-0.0
-0.0
-0.0
-0.0
-0.0
-0.0
-0.0
-0.0
-0.0
-0.0
-0.0
-0.0
-0.0
-0.0
-0.0
-0.0
-0.0
-0.0
-0.0
-0.0
-0.0
-0.0
-0.0
-0.0
-0.0
-0.0
-0.0
-0.0
-0.0
-0.0
-0.0
-0.0
-0.0
-0.0
-0.0
-0.0
-0.0
-0.0
-0.0
-0.0
-0.0
-0.0
-0.0
-0.0
-0.0
-0.0
-0.0
-0.0
-0.0
-0.0
-0.0
-0.0
-0.0
-0.0
-0.0
-0.0
-0.0
-0.0
-0.0
-0.0
-0.0
-0.0
-0.0
-0.0
-0.0
-0.0
-0.0
-0.0
-0.0
-0.0
-0.0
-0.0
-0.0
-0.0
-0.0
-0.0
-0.0
-0.0
-0.0
-0.0
-0.0
-0.0
-0.0
-0.0
-0.0
-0.0
-0.0
-0.0
-0.0
-0.0
-0.0
-0.0
-0.0
-0.0
-0.0
-0.0
-0.0
-0.0
-0.0
-0.0
-0.0
-0.0
-0.0
-0.0
-0.0
-0.0
-0.0
-0.0
-0.0
-0.0
-0.0
-0.0
-0.0
-0.0
-0.0
-0.0
-0.0
-0.0
-0.0
-0.0
-0.0
-0.0
-0.0
-0.0
-0.0
-0.0
-0.0
-0.0
-0.0
-0.0
-0.0
-0.0
-0.0
-0.0
-0.0
-0.0
-0.0
-0.0
-0.0
-0.0
-0.0
-0.0
-0.0
-0.0
-0.0
-0.0
-0.0
-0.0
-0.0
-0.0
-0.0
-0.0
-0.0
-0.0
-0.0
-0.0
-0.0
-0.0
-0.0
-0.0
-0.0
-0.0
-0.0
-0.0
-0.0
-0.0
-0.0
-0.0
-0.0
-0.0
-0.0
-0.0
-0.0
-0.0
-0.0
-0.0
-0.0
-0.0
-0.0
-0.0
-0.0
-0.0
-0.0
-0.0
-0.0
-0.0
-0.0
-0.0
-0.0
-0.0
-0.0
-0.0
-0.0
-0.0
-0.0
-0.0
-0.0
-0.0
-0.0
-0.0
-0.0
-0.0
-0.0
-0.0
-0.0
-0.0
-0.0
-0.0
-0.0
-0.0
-0.0
-0.0
-0.0
-0.0
-0.0
-0.0
-0.0
-0.0
-0.0
-0.0
-0.0
-0.0
-0.0
-0.0
-0.0
-0.0
-0.0
-0.0
-0.0
-0.0
-0.0
-0.0
-0.0
-0.0
-0.0
-0.0
-0.0
-0.0
-0.0
-0.0
-0.0
-0.0
-0.0
-0.0
-0.0
-0.0
-0.0
-0.0
-0.0
-0.0
-0.0
-0.0
-0.0
-0.0
-0.0
-0.0
-0.0
-0.0
-0.0
-0.0
-0.0
-0.0
-0.0
-0.0
-0.0
-0.0
-0.0
-0.0
-0.0
-0.0
-0.0
-0.0
-0.0
-0.0
-0.0
-0.0
-0.0
-0.0
-0.0
-0.0
-0.0
-0.0
-0.0
-0.0
-0.0
-0.0
-0.0
-0.0
-0.0
-0.0
-0.0
-0.0
-0.0
-0.0
-0.0
-0.0
-0.0
-0.0
-0.0
-0.0
-0.0
-0.0
-0.0
-0.0
-0.0
-0.0
-0.0
-0.0
-0.0
-0.0
-0.0
-0.0
-0.0
-0.0
-0.0
-0.0
-0.0
-0.0
-0.0
-0.0
-0.0
-0.0
-0.0
-0.0
-0.0
-0.0
-0.0
-0.0
-0.0
-0.0
-0.0
-0.0
-0.0
-0.0
-0.0
-0.0
-0.0
-0.0
-0.0
-0.0
-0.0
-0.0
-0.0
-0.0
-0.0
-0.0
-0.0
-0.0
0.0
-0.0
-0.0
-0.0
-0.0
-0.0
-0.0
-0.0
-0.0
-0.0
-0.0
-0.0
-0.0
-0.0
-0.0
-0.0
-0.0
-0.0
-0.0
-0.0
-0.0
-0.0
-0.0
-0.0
0.0
-0.0
-0.0
-0.0
-0.0
-0.0
-0.0
-0.0
-0.0
-0.0
-0.0
-0.0
-0.0
0.0
-0.0
-0.0
0.0
-0.0
-0.0
-0.0
-0.0
-0.0
-0.0
-0.0
-0.0
-0.0
-0.0
-0.0
-0.0
-0.0
-0.0
0.0
0.0
-0.0
0.0
-0.0
-0.0
0.0
-0.0
0.0
-0.0
-0.0
-0.0
0.0
0.0
0.0
-0.0
0.0
-0.0
0.0
0.0
-0.0
0.0
0.0
0.0
-0.0
-0.0
-0.0
-0.0
0.0
0.0
</DataArray>
<DataArray type="Float64" Name="Imag part" format="ascii">
0.0
0.0
0.0
0.0
0.0
0.0
0.0
0.0
0.0
0.0
0.0
0.0
0.0
0.0
0.0
0.0
0.0
0.0
0.0
0.0
0.0
0.0
0.0
0.0
0.0
0.0
0.0
0.0
0.0
0.0
0.0
0.0
0.0
0.0
0.0
0.0
0.0
0.0
0.0
0.0
0.0
0.0
0.0
0.0
0.0
0.0
0.0
0.0
0.0
0.0
0.0
0.0
0.0
0.0
0.0
0.0
0.0
0.0
0.0
0.0
0.0
0.0
0.0
0.0
0.0
0.0
0.0
0.0
0.0
0.0
0.0
0.0
0.0
0.0
0.0
0.0
0.0
0.0
0.0
0.0
0.0
0.0
0.0
0.0
0.0
0.0
0.0
0.0
0.0
0.0
0.0
0.0
0.0
0.0
0.0
0.0
0.0
0.0
0.0
0.0
0.0
0.0
0.0
0.0
0.0
0.0
0.0
0.0
0.0
0.0
0.0
0.0
0.0
0.0
0.0
0.0
0.0
0.0
0.0
0.0
0.0
0.0
0.0
0.0
0.0
0.0
0.0
0.0
0.0
0.0
0.0
0.0
0.0
0.0
0.0
0.0
0.0
0.0
0.0
0.0
0.0
0.0
0.0
0.0
0.0
0.0
0.0
0.0
0.0
0.0
0.0
0.0
0.0
0.0
0.0
0.0
0.0
0.0
0.0
0.0
0.0
0.0
0.0
0.0
0.0
0.0
0.0
0.0
0.0
0.0
0.0
0.0
0.0
0.0
0.0
0.0
0.0
0.0
0.0
0.0
0.0
0.0
0.0
0.0
0.0
0.0
0.0
0.0
0.0
0.0
0.0
0.0
0.0
0.0
0.0
0.0
0.0
0.0
0.0
0.0
0.0
0.0
0.0
0.0
0.0
0.0
0.0
0.0
0.0
0.0
0.0
0.0
0.0
0.0
0.0
0.0
0.0
0.0
0.0
0.0
0.0
0.0
0.0
0.0
0.0
0.0
0.0
0.0
0.0
0.0
0.0
0.0
0.0
0.0
0.0
0.0
0.0
0.0
0.0
0.0
0.0
0.0
0.0
0.0
0.0
0.0
0.0
0.0
0.0
0.0
0.0
0.0
0.0
0.0
0.0
0.0
0.0
0.0
0.0
0.0
0.0
0.0
0.0
0.0
0.0
0.0
0.0
0.0
0.0
0.0
0.0
0.0
0.0
0.0
0.0
0.0
0.0
0.0
0.0
0.0
0.0
0.0
0.0
0.0
0.0
0.0
0.0
0.0
0.0
0.0
0.0
0.0
0.0
0.0
0.0
0.0
0.0
0.0
0.0
0.0
0.0
0.0
0.0
0.0
0.0
0.0
0.0
0.0
0.0
0.0
0.0
0.0
0.0
0.0
0.0
0.0
0.0
0.0
0.0
0.0
0.0
0.0
0.0
0.0
0.0
0.0
0.0
0.0
0.0
0.0
0.0
0.0
0.0
0.0
0.0
0.0
0.0
0.0
0.0
0.0
0.0
0.0
0.0
0.0
0.0
0.0
0.0
0.0
0.0
0.0
0.0
0.0
0.0
0.0
0.0
0.0
0.0
0.0
0.0
0.0
0.0
0.0
0.0
0.0
0.0
0.0
0.0
0.0
0.0
0.0
0.0
0.0
0.0
0.0
0.0
0.0
0.0
0.0
0.0
0.0
0.0
0.0
0.0
0.0
0.0
0.0
0.0
0.0
0.0
0.0
0.0
0.0
0.0
0.0
0.0
0.0
0.0
0.0
0.0
0.0
0.0
0.0
0.0
0.0
0.0
0.0
0.0
0.0
0.0
0.0
0.0
0.0
0.0
0.0
0.0
0.0
0.0
0.0
0.0
0.0
0.0
0.0
0.0
0.0
0.0
0.0
0.0
0.0
0.0
0.0
0.0
0.0
0.0
0.0
0.0
0.0
0.0
0.0
0.0
0.0
0.0
0.0
0.0
0.0
0.0
0.0
0.0
0.0
0.0
0.0
0.0
0.0
0.0
0.0
0.0
0.0
0.0
0.0
0.0
0.0
0.0
0.0
0.0
0.0
0.0
0.0
0.0
0.0
0.0
0.0
0.0
0.0
0.0
0.0
0.0
0.0
0.0
0.0
0.0
0.0
0.0
0.0
0.0
0.0
0.0
0.0
0.0
0.0
0.0
0.0
0.0
0.0
0.0
0.0
</DataArray>
</PointData>
</Piece>
</UnstructuredGrid>
</VTKFile>
