<VTKFile type="UnstructuredGrid" version="1.0" byte_order="LittleEndian" header_type="UInt64">
<UnstructuredGrid>
<Piece NumberOfPoints="1352" NumberOfCells= "2512">
<Points>
<DataArray NumberOfComponents="3" type="Float64">
1.0 0.0 0.0 
0.0 1.0 0.0 
-1.0 0.0 0.0 
0.0 -1.0 0.0 
0.5 0.0 0.0 
0.0 0.5 0.0 
-0.5 0.0 0.0 
0.0 -0.5 0.0 
0.9987954562 0.0490676744402 0.0 
0.995184726651 0.0980171405421 0.0 
0.989176509915 0.146730474792 0.0 
0.980785280307 0.195090322498 0.0 
0.970031253042 0.242980180512 0.0 
0.95694033551 0.290284677988 0.0 
0.941544064872 0.336889854261 0.0 
0.923879532094 0.382683433371 0.0 
0.903989292598 0.42755509454 0.0 
0.88192126371 0.471396738021 0.0 
0.857728609225 0.514102745486 0.0 
0.831469611367 0.555570234419 0.0 
0.80320753038 0.595699305977 0.0 
0.773010452059 0.634393285753 0.0 
0.740951123878 0.671558956477 0.0 
0.707106779511 0.707106782862 0.0 
0.671558953168 0.740951126877 0.0 
0.634393282511 0.773010454719 0.0 
0.595699302905 0.803207532658 0.0 
0.555570231501 0.831469613317 0.0 
0.514102742729 0.857728610878 0.0 
0.471396735478 0.881921265069 0.0 
0.427555092162 0.903989293723 0.0 
0.382683431202 0.923879532993 0.0 
0.336889852318 0.941544065567 0.0 
0.290284676347 0.956940336008 0.0 
0.242980179181 0.970031253375 0.0 
0.19509032141 0.980785280524 0.0 
0.146730473978 0.989176510036 0.0 
0.0980171400311 0.995184726702 0.0 
0.0490676741974 0.998795456212 0.0 
-0.0490676744402 0.9987954562 0.0 
-0.0980171405421 0.995184726651 0.0 
-0.146730474792 0.989176509915 0.0 
-0.195090322498 0.980785280307 0.0 
-0.242980180512 0.970031253042 0.0 
-0.290284677988 0.95694033551 0.0 
-0.336889854261 0.941544064872 0.0 
-0.382683433371 0.923879532094 0.0 
-0.42755509454 0.903989292598 0.0 
-0.471396738021 0.88192126371 0.0 
-0.514102745486 0.857728609225 0.0 
-0.555570234419 0.831469611367 0.0 
-0.595699305977 0.80320753038 0.0 
-0.634393285753 0.773010452059 0.0 
-0.671558956477 0.740951123878 0.0 
-0.707106782862 0.707106779511 0.0 
-0.740951126877 0.671558953168 0.0 
-0.773010454719 0.634393282511 0.0 
-0.803207532658 0.595699302905 0.0 
-0.831469613317 0.555570231501 0.0 
-0.857728610878 0.514102742729 0.0 
-0.881921265069 0.471396735478 0.0 
-0.903989293723 0.427555092162 0.0 
-0.923879532993 0.382683431202 0.0 
-0.941544065567 0.336889852318 0.0 
-0.956940336008 0.290284676347 0.0 
-0.970031253375 0.242980179181 0.0 
-0.980785280524 0.19509032141 0.0 
-0.989176510036 0.146730473978 0.0 
-0.995184726702 0.0980171400311 0.0 
-0.998795456212 0.0490676741974 0.0 
-0.9987954562 -0.0490676744402 0.0 
-0.995184726651 -0.0980171405421 0.0 
-0.989176509915 -0.146730474792 0.0 
-0.980785280307 -0.195090322498 0.0 
-0.970031253042 -0.242980180512 0.0 
-0.95694033551 -0.290284677988 0.0 
-0.941544064872 -0.336889854261 0.0 
-0.923879532094 -0.382683433371 0.0 
-0.903989292598 -0.42755509454 0.0 
-0.88192126371 -0.471396738021 0.0 
-0.857728609225 -0.514102745486 0.0 
-0.831469611367 -0.555570234419 0.0 
-0.80320753038 -0.595699305977 0.0 
-0.773010452059 -0.634393285753 0.0 
-0.740951123878 -0.671558956477 0.0 
-0.707106779511 -0.707106782862 0.0 
-0.671558953168 -0.740951126877 0.0 
-0.634393282511 -0.773010454719 0.0 
-0.595699302905 -0.803207532658 0.0 
-0.555570231501 -0.831469613317 0.0 
-0.514102742729 -0.857728610878 0.0 
-0.471396735478 -0.881921265069 0.0 
-0.427555092162 -0.903989293723 0.0 
-0.382683431202 -0.923879532993 0.0 
-0.336889852318 -0.941544065567 0.0 
-0.290284676347 -0.956940336008 0.0 
-0.242980179181 -0.970031253375 0.0 
-0.19509032141 -0.980785280524 0.0 
-0.146730473978 -0.989176510036 0.0 
-0.0980171400311 -0.995184726702 0.0 
-0.0490676741974 -0.998795456212 0.0 
0.0490676744402 -0.9987954562 0.0 
0.0980171405421 -0.995184726651 0.0 
0.146730474792 -0.989176509915 0.0 
0.195090322498 -0.980785280307 0.0 
0.242980180512 -0.970031253042 0.0 
0.290284677988 -0.95694033551 0.0 
0.336889854261 -0.941544064872 0.0 
0.382683433371 -0.923879532094 0.0 
0.42755509454 -0.903989292598 0.0 
0.471396738021 -0.88192126371 0.0 
0.514102745486 -0.857728609225 0.0 
0.555570234419 -0.831469611367 0.0 
0.595699305977 -0.80320753038 0.0 
0.634393285753 -0.773010452059 0.0 
0.671558956477 -0.740951123878 0.0 
0.707106782862 -0.707106779511 0.0 
0.740951126877 -0.671558953168 0.0 
0.773010454719 -0.634393282511 0.0 
0.803207532658 -0.595699302905 0.0 
0.831469613317 -0.555570231501 0.0 
0.857728610878 -0.514102742729 0.0 
0.881921265069 -0.471396735478 0.0 
0.903989293723 -0.427555092162 0.0 
0.923879532993 -0.382683431202 0.0 
0.941544065567 -0.336889852318 0.0 
0.956940336008 -0.290284676347 0.0 
0.970031253375 -0.242980179181 0.0 
0.980785280524 -0.19509032141 0.0 
0.989176510036 -0.146730473978 0.0 
0.995184726702 -0.0980171400311 0.0 
0.998795456212 -0.0490676741974 0.0 
0.497592363326 0.0490085702704 0.0 
0.490392640154 0.0975451612479 0.0 
0.478470167755 0.145142338992 0.0 
0.461939766048 0.191341716683 0.0 
0.440960631856 0.235698369008 0.0 
0.415734805686 0.277785117206 0.0 
0.386505226032 0.317196642873 0.0 
0.353553389759 0.353553391427 0.0 
0.317196641255 0.38650522736 0.0 
0.277785115754 0.415734806656 0.0 
0.235698367729 0.44096063254 0.0 
0.191341715591 0.461939766501 0.0 
0.145142338165 0.478470168006 0.0 
0.0975451607029 0.490392640262 0.0 
0.0490085700154 0.497592363351 0.0 
-0.0490085702704 0.497592363326 0.0 
-0.0975451612479 0.490392640154 0.0 
-0.145142338992 0.478470167755 0.0 
-0.191341716683 0.461939766048 0.0 
-0.235698369008 0.440960631856 0.0 
-0.277785117206 0.415734805686 0.0 
-0.317196642873 0.386505226032 0.0 
-0.353553391427 0.353553389759 0.0 
-0.38650522736 0.317196641255 0.0 
-0.415734806656 0.277785115754 0.0 
-0.44096063254 0.235698367729 0.0 
-0.461939766501 0.191341715591 0.0 
-0.478470168006 0.145142338165 0.0 
-0.490392640262 0.0975451607029 0.0 
-0.497592363351 0.0490085700154 0.0 
-0.497592363326 -0.0490085702704 0.0 
-0.490392640154 -0.0975451612479 0.0 
-0.478470167755 -0.145142338992 0.0 
-0.461939766048 -0.191341716683 0.0 
-0.440960631856 -0.235698369008 0.0 
-0.415734805686 -0.277785117206 0.0 
-0.386505226032 -0.317196642873 0.0 
-0.353553389759 -0.353553391427 0.0 
-0.317196641255 -0.38650522736 0.0 
-0.277785115754 -0.415734806656 0.0 
-0.235698367729 -0.44096063254 0.0 
-0.191341715591 -0.461939766501 0.0 
-0.145142338165 -0.478470168006 0.0 
-0.0975451607029 -0.490392640262 0.0 
-0.0490085700154 -0.497592363351 0.0 
0.0490085702704 -0.497592363326 0.0 
0.0975451612479 -0.490392640154 0.0 
0.145142338992 -0.478470167755 0.0 
0.191341716683 -0.461939766048 0.0 
0.235698369008 -0.440960631856 0.0 
0.277785117206 -0.415734805686 0.0 
0.317196642873 -0.386505226032 0.0 
0.353553391427 -0.353553389759 0.0 
0.38650522736 -0.317196641255 0.0 
0.415734806656 -0.277785115754 0.0 
0.44096063254 -0.235698367729 0.0 
0.461939766501 -0.191341715591 0.0 
0.478470168006 -0.145142338165 0.0 
0.490392640262 -0.0975451607029 0.0 
0.497592363351 -0.0490085700154 0.0 
-0.18083950184 -0.722982038024 0.0 
0.722982038024 -0.18083950184 0.0 
0.18083950184 0.722982038024 0.0 
-0.722982038024 0.18083950184 0.0 
-0.598445775966 0.444149305825 0.0 
0.444149305825 0.598445775966 0.0 
-0.444149305825 -0.598445775966 0.0 
0.598445775966 -0.444149305825 0.0 
0.737152588339 0.109599333041 0.0 
-0.737152588339 -0.109599333041 0.0 
0.109599333041 -0.737152588339 0.0 
-0.109599333041 0.737152588339 0.0 
-0.382923222513 0.639355736523 0.0 
0.639355736523 0.382923222513 0.0 
-0.639355736523 -0.382923222513 0.0 
0.382923222513 -0.639355736523 0.0 
0.35595459659 0.7539526966 0.0 
-0.7539526966 0.35595459659 0.0 
-0.35595459659 -0.7539526966 0.0 
0.7539526966 -0.35595459659 0.0 
0.826103696198 -0.0405838717007 0.0 
-0.0405838717007 -0.826103696198 0.0 
0.0405838717007 0.826103696198 0.0 
-0.826103696198 0.0405838717007 0.0 
-0.612840655629 -0.555446395235 0.0 
0.555446395235 -0.612840655629 0.0 
0.612840655629 0.555446395235 0.0 
-0.555446395235 0.612840655629 0.0 
0.778751071526 0.27864158969 0.0 
-0.27864158969 0.778751071526 0.0 
-0.778751071526 -0.27864158969 0.0 
0.27864158969 -0.778751071526 0.0 
0.660357604713 -0.0324412887415 0.0 
-0.0324412887415 -0.660357604713 0.0 
0.0324412887415 0.660357604713 0.0 
-0.660357604713 0.0324412887415 0.0 
-0.597676131771 0.282679756683 0.0 
0.282679756683 0.597676131771 0.0 
-0.282679756683 -0.597676131771 0.0 
0.597676131771 -0.282679756683 0.0 
-0.489882794761 -0.444003886148 0.0 
0.444003886148 -0.489882794761 0.0 
0.489882794761 0.444003886148 0.0 
-0.444003886148 0.489882794761 0.0 
-0.622505619131 -0.222736072724 0.0 
0.222736072724 -0.622505619131 0.0 
0.622505619131 0.222736072724 0.0 
-0.222736072724 0.622505619131 0.0 
-0.832936227176 0.254904465244 0.0 
0.254904465244 0.832936227176 0.0 
-0.254904465244 -0.832936227176 0.0 
0.832936227176 -0.254904465244 0.0 
-0.72540870348 0.482302715915 0.0 
0.482302715915 0.72540870348 0.0 
-0.482302715915 -0.72540870348 0.0 
0.72540870348 -0.482302715915 0.0 
0.867080447902 0.0832498756083 0.0 
-0.0832498756083 0.867080447902 0.0 
0.0832498756083 -0.867080447902 0.0 
-0.867080447902 -0.0832498756083 0.0 
-0.485716990389 0.723075411071 0.0 
0.723075411071 0.485716990389 0.0 
-0.723075411071 -0.485716990389 0.0 
0.485716990389 -0.723075411071 0.0 
0.148955126761 0.594662201769 0.0 
-0.594662201769 0.148955126761 0.0 
-0.148955126761 -0.594662201769 0.0 
0.594662201769 -0.148955126761 0.0 
-0.364052533526 -0.488904223031 0.0 
0.488904223031 -0.364052533526 0.0 
-0.488904223031 0.364052533526 0.0 
0.364052533526 0.488904223031 0.0 
-0.602788206592 -0.0905978166685 0.0 
0.0905978166685 -0.602788206592 0.0 
0.602788206592 0.0905978166685 0.0 
-0.0905978166685 0.602788206592 0.0 
-0.519852778359 -0.311587765322 0.0 
0.311587765322 -0.519852778359 0.0 
-0.311587765322 0.519852778359 0.0 
0.519852778359 0.311587765322 0.0 
0.875103984078 -0.142921343893 0.0 
-0.875103984078 0.142921343893 0.0 
0.142921343893 0.875103984078 0.0 
-0.142921343893 -0.875103984078 0.0 
[...]
<PointData Scalars="solution">
<DataArray type="Float64" Name="Real part" format="ascii">
0.620720656886
1.24560097473
0.8460634966
0.602860300397
1.91784854933
1.91784854933
1.91784854933
1.91784854933
0.463347253695
0.787813055186
0.771244542519
0.735110034705
0.677155048668
0.626098769857
0.524305302187
0.472277691135
0.447638471316
0.460303638902
0.587798658619
0.74394445739
0.921509107842
1.10834980978
1.26620488114
1.3968793207
1.50298622481
1.53744294528
1.47732359945
1.35573222444
1.15014496764
0.908255921206
0.659460850838
0.534792769458
0.614082080115
0.852924659042
1.10603934346
1.2930529358
1.42289565557
1.42317523342
1.33388348213
1.31254385634
0.776446036674
0.621902404667
0.637933090078
0.775673980763
0.968650543243
1.14201237185
1.26087298215
1.3207555907
1.38826055927
1.39106901433
1.36818535683
1.27057703478
1.16512250146
1.06921134721
0.988294243391
0.905115865911
0.777248729739
0.648154585476
0.520459536434
0.446049263973
0.383125315352
0.307844259017
0.250744965397
0.150902809904
0.125085378009
0.151566314038
0.189396899169
0.226498063708
0.215164228294
0.234190886291
0.312889046695
0.407248702897
0.490977206804
0.575474766633
0.616181111572
0.621052206906
0.639337521197
0.627505328798
0.652844128033
0.669265387608
0.679638696399
0.645290286627
0.572324484581
0.532552602091
0.561208491066
0.566230871502
0.562184411197
0.608549664438
0.673099432931
0.807526693095
0.941150981628
1.05845893531
1.16875256132
1.26861534199
1.34996599265
1.39902773162
1.35787652859
1.26373440586
1.09959562146
0.920818226791
0.721682082219
0.660990409304
0.884332720145
1.12621805714
1.31912148883
1.42025193517
1.44544230829
1.38845501462
1.17234797115
0.914171319368
0.63443317358
0.50321587969
0.62500008524
0.880625921887
1.1436129553
1.33627193554
1.4739389026
1.54669589313
1.50487946282
1.42738178631
1.28408513942
1.11905995129
0.926207467268
0.737165885807
0.574604790503
0.466348944553
0.430796059252
0.466498084236
0.529045241673
0.596284142766
0.672921644569
0.72463131589
1.91088447869
0.143870094024
0.237884941332
0.329104422832
0.416511642511
0.499182768729
0.576302805122
0.647174683149
0.71122156486
0.767982843438
0.817104772312
0.858327130776
0.891467499621
0.916404846396
0.933064073755
1.6611856671
0.933064078885
0.916404851407
0.891467504372
0.858327134141
0.81710477549
0.767982846493
0.71122156579
0.647174676716
0.576302798278
0.499182763167
0.416511637993
0.329104418855
0.237884938503
0.143870092363
5.0232358731e-10
0.143870094024
0.237884941332
0.329104422832
0.416511642511
0.499182768729
0.576302805122
0.647174683149
0.71122156486
0.767982843438
0.817104772312
0.858327130776
0.891467499621
0.916404846396
0.933064073755
1.6611856671
0.933064078885
0.916404851407
0.891467504372
0.858327134141
0.81710477549
0.767982846493
0.71122156579
0.647174676716
0.576302798278
0.499182763167
0.416511637993
0.329104418855
0.237884938503
0.143870092363
1.50320388903
1.59964036797
1.5433420018
0.979714354713
1.79578051632
1.17910441569
0.769026919265
0.307198780086
0.537940500813
1.8342333094
0.604330632461
0.488149698613
0.480049458469
0.667554545551
0.170700244652
1.25254473746
1.39714467146
1.83151969948
0.536586948125
1.62455505974
0.934778247635
1.38060341251
1.48946899522
1.54099709778
1.42675635635
0.79550323102
1.62117066208
1.09824293983
1.2876213355
1.27616099687
1.91493405751
1.15420389014
1.08991576669
1.59575977102
0.656319286776
0.991833951758
1.22051955729
1.13880672491
0.721638117368
0.766055642322
1.81456916274
1.10912699117
1.51467907909
0.27112640568
1.93392723238
0.955115453011
1.45665991246
0.997830362612
0.608906357981
1.12333734685
0.562302175907
0.996476889866
0.455169578467
1.09076568426
1.07351917124
1.05410828314
0.704169331135
1.24432157715
1.43851067723
0.0611853029417
0.530744784271
1.01497889086
1.71054886026
1.08751160179
1.52420528713
1.77848642456
1.40837803158
1.5619870228
0.381544170169
0.819543420189
0.62002260987
1.29756953707
0.355434223961
0.384477061419
0.317704663416
1.43026721825
1.75755136302
1.25121746679
0.251056998228
0.398509057009
1.27363899022
2.05718009798
0.880042681137
1.46072130767
1.54371342282
0.422029654299
1.23249804773
0.707097625939
1.55929992365
1.21286061618
1.15984463532
1.62463128286
0.792830666121
1.19399733079
1.78471100852
1.43730570056
1.3686789082
0.215032443761
0.867547372525
1.6098958173
1.53367463528
0.898525805281
0.553071717868
1.26369940682
1.06977853537
0.601355988681
1.4236752039
1.9846001209
0.737527010073
1.66689967789
1.0679930523
0.973962783276
1.31664495815
0.434232606755
0.781442278085
1.13835623122
0.772178897502
0.400855021377
1.55500789306
1.1332776176
1.45130758209
2.09084071182
1.02030500291
1.53222687169
1.97127465168
1.21872454138
1.01725790772
1.14860226213
1.52237411037
1.27699105085
0.932941935897
1.45993169234
1.4900897174
1.36785471778
0.524964005086
0.683258839023
1.17441589719
0.802517793671
1.07177280559
0.90638180259
1.54044445021
0.681014372821
0.609356669682
1.60179807012
1.3067811463
1.24896216419
0.825034112316
0.90115579411
1.7208433613
1.83878341995
0.324278230745
0.569832992031
0.500349985474
1.89369018965
0.954131827113
0.454308855055
1.78660261495
1.21429918109
1.80673371697
1.66589245462
1.07887312612
1.22546239736
1.84763741964
0.537109390256
1.92460767597
1.37628195069
0.425649446429
1.4685430338
1.04273532659
0.379930202102
0.234323259785
1.95174454645
0.94211555168
1.30740463789
1.46564234391
1.0061053713
0.901026301392
1.00559201891
1.70847145563
0.261173445597
1.98691474819
1.04595769092
1.14535897501
1.17736638847
1.03962189038
1.16898000514
0.487951483192
0.814558592755
2.00032522033
0.836856929517
1.42131018479
0.603174993203
1.11047106658
1.53324674815
1.12980575681
0.406835549228
0.672487586119
0.636164351204
0.691959143365
0.928548292446
0.420023327304
1.80023898611
1.22734500489
1.46813988861
1.46543500116
1.5243958592
0.537951201444
0.954270145364
0.700945636499
0.24769013128
1.59638372085
0.408790642582
1.15525220915
2.01208088393
1.5850736323
1.65567257907
1.35393427826
1.11694748587
0.883632481718
0.806313836982
0.81809936712
1.60160918777
0.954417984407
1.44958727799
0.726852953249
1.97172048176
1.2281398122
1.71537687481
1.27247359667
1.20228687956
0.653925591891
0.840555948899
1.65356018499
0.773202355322
0.932262264097
1.18496029977
1.48616903289
2.05267759544
1.4230634004
0.476476974352
1.08051234845
0.895771031777
1.40783858848
0.934853955005
1.61405896727
0.58967422941
1.17365788108
1.6796007767
1.68330788668
1.16834945372
1.08864176185
1.48218163594
1.35549847162
1.39629798109
1.00101695757
0.58087409185
1.10994036122
1.55791328442
1.44854154349
0.965672695007
1.57250649099
0.75537631172
0.786789471973
1.21393708695
1.7875072289
1.00411840892
1.13236731002
1.21464378285
1.2036351259
1.40525327656
1.6367770439
1.13408592519
0.500668362363
1.55785698369
1.38824421533
0.705523498388
1.36378182591
1.11082924218
1.40903330137
1.38039171604
1.40576744483
1.61174982027
1.04268097723
0.870610637323
1.54912137087
1.00342294632
1.36166017947
1.29432499057
1.52777537257
1.87437083973
1.01802503645
1.56943704848
1.01212171466
1.17437040619
0.806794227736
1.34441917745
0.919946089402
1.4000495729
1.48905008632
0.619737737034
1.41616347052
1.1844651769
0.961924811696
1.46798719969
0.405734537845
1.03057716192
1.29167983273
1.2047916871
1.07320903651
1.03190860993
0.841163362911
1.32690623516
1.13028915733
0.542882798836
1.69834956673
1.70750984666
1.52174763823
1.221414036
0.928071214445
0.695719383113
0.653048887385
0.671239615579
0.507205812343
1.29941035225
0.763436365135
0.52455535466
0.472549015568
1.1849934735
0.899792846897
1.18958443468
0.76960833423
1.30982899502
0.786003936691
0.496780077574
1.63983282619
1.22903712251
1.27856811462
1.24700310131
0.993756534694
1.45555189271
1.42784363903
0.760359354455
1.47642586166
1.96069437074
0.897532113934
1.43541691735
1.06972858707
0.379793189565
1.09603557421
0.512343892103
1.13626196853
0.909768700227
1.44069590702
1.65273421846
0.742048798508
1.20976925235
0.757376747025
0.610236930267
1.53983561182
0.700064792083
1.30932388637
1.03148863723
1.89856668188
0.845063053822
1.36312675993
1.60854244811
1.01325585731
1.38972053156
1.22773451927
0.466873240901
1.52393046268
1.24773918556
1.3267431715
1.44230997394
1.75016257636
0.424635854396
1.57263130769
0.42543033442
1.33327468757
0.308672335143
0.4145977866
1.75892097012
0.702373926674
1.84614655799
1.24549117757
0.422756285164
0.665375576868
1.531818688
1.67680547938
1.02093238541
0.430936109858
1.11484585756
1.4960201242
1.85711630575
1.09602640605
0.476659143772
1.05294150885
1.21603863306
0.514990638448
1.16519276763
0.815383693438
1.14462329616
1.05385764317
1.82470267348
1.09122915811
1.43514142017
0.873973651634
1.06986488169
0.629041021388
1.43519827287
0.876880172616
1.19170362981
1.15234472447
0.480315049866
1.21502606856
0.67273727862
0.635462520628
0.587927234606
1.56622846463
0.934907389173
1.2572315972
1.9464880635
1.16009163621
0.761032195581
0.735007003568
1.0005278921
1.83390821225
0.246942645793
1.74673318396
1.05205534005
1.69601921378
1.94673473658
1.88583142663
0.628187732659
1.33946001313
1.32983698855
1.57065531884
1.36474636157
1.72058097145
1.29017054946
1.52398850516
1.44218606066
1.27954239014
0.888750315973
1.45635011433
1.75200669753
1.54253190267
0.412260806708
0.774615314215
0.36850663992
0.0887196642718
0.731138684939
0.920494540923
0.917675026591
1.40771712071
1.21436974353
1.60412805883
0.626738281892
0.622939672599
0.620034744369
0.451710980655
1.50002896033
0.633036365341
0.643372504333
1.26228117677
1.3824914371
0.575650358567
1.64968738725
0.804650229902
1.27485778488
1.85864660923
0.557675654126
0.406135136667
0.9038351999
0.678057202919
0.885978358871
1.34215894576
1.20657315854
0.788308221337
1.60004208545
1.56826422214
1.72852686412
0.996683885041
0.677626468523
0.637018894277
0.389781910632
1.55233025506
0.915969575738
1.11848456883
1.35309257697
1.59090099691
1.81664793172
1.10893808512
0.57447030964
1.44006732691
1.27076252464
1.59834889165
0.272505635271
1.26093655592
1.22354617366
1.71121467821
1.94802723205
1.11448168473
0.68695174897
2.06624238721
0.780110549647
1.59607135294
0.425834925537
1.21624389632
0.482216528062
1.25505993102
1.0451523432
1.67467742261
1.41400809494
1.19278107584
0.257752084312
0.3813620528
1.27245834403
0.196423506309
1.06113861241
0.880722565387
0.755164838811
1.56787426611
1.2204677616
0.79890883009
0.812557092499
1.43358746829
1.05363846811
0.255457350932
1.22913575346
1.41417802072
1.20202171247
1.66617642844
0.238916307137
0.614902291429
1.48001592991
1.53718196072
0.408656284048
1.03826381232
1.05696585497
1.07413872723
1.21430714329
0.985658890186
1.41976636017
0.544077317054
0.635546739301
0.102458415243
0.559722663259
1.33896468329
0.85910645735
0.843866727466
0.920838659254
1.44171433854
1.67269185068
1.55171988496
1.18351525656
1.27017689871
0.550952087536
0.853607678539
1.5746372641
1.90582186089
0.965114652062
1.2562036828
1.48984965786
1.95417033636
0.373158793211
0.938256740727
1.60148703999
0.322427547862
0.97802009794
1.13542647279
1.05525326062
1.91642884634
0.48930706516
1.35556044662
1.62973792562
1.22182402176
1.18181108715
0.467308759361
1.47941754671
1.31855356353
1.77080960879
0.861786923263
1.57529834753
0.743823451887
1.41120390472
1.42173251768
1.24152736057
1.68682510323
0.0975130530805
1.0621026022
0.841197012575
0.450620388886
1.53362536595
0.436763848729
0.679092365339
0.535015201484
1.61928979185
1.75856676092
1.20865446045
0.729428060743
1.28076840591
1.87686661281
1.36961205703
1.51585102948
1.08198032609
0.410259594357
0.405614106105
0.323944274294
1.5243157816
1.82473865347
0.0991170391342
1.44112537068
1.57440090815
0.182109444955
0.169070350375
1.86156201126
0.644952775743
0.349110178658
1.40005669244
0.481122900077
1.48076207331
1.17674967999
1.05428402148
0.361036446595
0.699705020608
1.23102323745
1.6956649186
1.82927517605
1.66556316857
0.857530171476
1.54873513326
1.40834437889
1.05734683763
1.43953011494
1.22859176813
0.839446904176
1.63510798585
0.52221048065
1.29639772305
0.399635557744
0.978771564175
1.91803696119
0.862255856521
1.41967422474
1.43590996909
0.705172221401
1.07826352447
1.50633404852
1.21113209461
1.28605127863
1.26254793168
1.34846247901
1.12865595381
1.39783858463
0.402210624952
0.435794431772
1.70513140876
0.983429502349
1.62070672232
0.94886318136
1.20722631168
1.28316259958
1.45227548938
1.04791966643
0.839984221595
1.08915895634
1.4173043138
1.65766767164
0.870351901776
0.508961360196
1.23253632168
1.85979445793
0.485104121135
0.995571426515
1.86016758808
1.24067892237
0.728834839971
1.99745576348
1.22577763526
1.98440948121
1.32111334402
0.0966792034032
1.09281820123
1.46632827759
0.726108671559
0.558314881563
0.516796719664
1.22424819651
1.23280655899
1.40237681147
1.59513891425
1.58813786433
1.34682537161
1.69656522923
1.24481777648
1.03919473212
0.613038906206
2.0494574905
0.904408366001
1.7950516977
1.12268115791
0.385107993679
0.396617473996
1.44133790126
0.936563329904
0.42984810526
0.607034889785
1.46516616127
1.24022185939
0.342146288055
0.978566554798
1.20959372677
1.10603555863
1.06542931247
1.30017151746
0.37319572633
1.22404102397
0.831490061622
0.656685942027
1.73797591209
1.1427227122
1.46860552198
0.5832433367
1.66955174704
1.59978475956
1.00881560882
0.818120605215
1.41123282855
0.708577156091
1.15502045145
1.35627058638
0.822118650822
0.51582547017
0.435588749095
0.473935819867
1.82619502614
1.26724512693
1.41355238449
0.645290138192
1.667129862
0.835222703838
1.16036762051
0.974572423827
0.972346162207
1.50280481835
1.69052167854
0.411684899255
1.8087530393
0.503555747666
0.670318566253
1.62552461968
0.989113293027
0.603596414434
1.5561604786
0.495781863356
1.54776241353
1.37538119776
0.939083040213
1.29114457707
1.226251901
1.48414529584
1.19777655666
1.96013085765
1.3469127162
0.926844717191
1.02014371656
1.695407193
1.60068827299
1.05973583284
1.58351942396
1.6762187588
0.211086505044
1.08800007528
0.843545670876
1.30303043512
0.635817769859
1.28507909704
1.9476304581
0.319175893648
1.01110766657
0.498421930622
1.16734446704
1.38914544716
0.696579867739
1.4985284225
1.11620867737
1.2445559011
0.753359538788
2.02034155572
0.480350882543
0.657786013553
0.695615489954
0.602773967049
2.03630323895
0.762886101027
0.639899723015
1.24281691729
0.978742313953
1.10805831335
0.472830120844
1.50216466521
1.84307123902
1.35298577352
0.64186078156
1.12500933429
1.40814474708
0.962249940269
1.30369935432
0.706946523235
0.40299856972
1.13215502779
0.620521828275
1.08284474672
1.38310931831
0.821568360724
1.06727286599
1.0925315129
1.33874439841
1.24872241853
0.809874351683
1.84751484746
0.738989212196
1.77203523507
1.67858479886
1.06290689125
0.483486825857
1.09259137362
0.734140668753
1.69961744455
0.465599380215
0.985070918331
1.27398487605
1.58284351906
0.785847192896
1.31171204765
0.121041597272
0.775424162971
1.31743646027
1.48176978243
1.03696601463
1.40463183502
0.818228925533
0.499794323537
1.50951373408
1.43824382827
1.45694777623
1.11395988013
1.58269648412
1.47132883747
1.51407624558
0.772503162321
1.68279138324
1.14034869916
0.506816990975
0.974606150389
0.730062892134
0.849991595264
0.97262750172
0.537282397238
0.504772598887
0.725152668422
0.605737987381
0.492865947796
0.989725285499
1.38851496563
0.614226624416
1.20584386638
1.11635799427
1.21344541454
0.650546508268
0.668544276081
1.95268701605
0.929889155942
0.817407034629
0.664027214153
1.23850674562
0.488043656709
1.13623194207
1.5507948127
1.55124331087
1.32755500468
0.389754144308
0.81546342478
1.50827375433
1.51070654482
0.423903608429
0.784844614134
1.60567054405
1.22545375753
1.1988085699
1.21263687036
1.49635112801
1.16333781414
1.63164567478
0.0333232116457
0.133280840362
0.556796360965
1.61685768826
1.45942346041
0.30384898216
1.68287577329
0.499946179079
1.78566884727
1.67966941032
0.715804512848
0.323651555489
0.488278562052
0.611875199395
1.44281507219
1.87472735474
0.793291220908
1.60339968581
0.84414641746
1.52675031179
0.921554590226
0.718368815656
0.296367068111
1.85253461229
1.21892008842
0.922802061118
1.84510810435
1.23770948913
1.1030074996
0.529060970349
0.572951070055
0.525120695778
0.430819930386
0.0513458151713
0.874890996287
1.43276348573
1.37111779989
0.800054987797
1.65837453741
1.890128817
1.04739359772
0.744970407583
0.494318073716
0.18213145091
1.21545874038
1.64791392855
1.18928287309
0.52549714887
0.66056612333
0.938453003248
0.210543230002
1.20033768212
1.07828336478
1.14830815036
1.26141781092
1.70099570366
1.21911917817
0.103473530568
1.44651953673
0.836984154538
1.60319379909
1.67275588545
1.19869015878
0.845942174491
1.54245410185
1.38433077946
1.39292808345
1.48638503641
0.962188460497
0.694886154129
1.77837932545
0.850394814542
1.58740469814
1.51266602473
1.52252395145
0.82443555
1.50882778275
1.35788434527
1.43671161788
1.52468179586
0.510766793859
1.04373887922
1.38376114716
0.636092025612
1.56628603213
0.801984607751
1.07575505469
0.662420449625
0.552833241822
0.358793255941
1.01343189908
1.50518648745
0.832242148345
0.741460826454
1.46144867405
0.755188944377
1.08432496453
1.20175507717
1.29685374087
1.32995463584
1.15730038729
1.09315717977
1.42238066804
0.900192356056
0.895718611342
1.62350554507
0.941818358401
1.25163167536
0.569359653767
0.165609934232
1.24312942161
1.17738575147
1.35781983539
1.61794269258
1.12887500645
1.50315402331
1.20698058966
1.61450857954
1.15112533341
0.505233179719
1.06698219129
1.65554072128
1.06842730356
1.01890823424
0.895263181374
0.569137828187
1.46191693206
1.46282025448
1.18562253245
0.939377679127
1.74353982615
1.34355281545
1.15068790964
1.29493249674
1.74538333949
1.93913884021
1.2849559262
0.86531729553
1.62665949041
1.87158011513
0.89101564081
1.07416192932
0.718171526686
0.843568405855
1.90809532697
1.82783594361
1.24115994282
1.39947759065
0.738398621802
1.65949115
0.565390979508
1.1602202854
0.567396587938
1.05089958841
0.764351598943
2.00611699801
0.862925027862
1.32066951565
0.483542263681
1.41728352316
0.890747491531
1.48862967577
1.19417008808
1.45225879041
0.49004097643
1.56912386278
0.58562991787
1.46443781029
0.667113910395
0.86138292512
0.429097190843
0.951579463793
1.05904156258
1.10073245221
1.689036357
1.43547770343
0.447894204656
1.30388121086
1.22929569432
0.462470838469
1.34959477463
1.15264282825
1.22074770046
1.88757144442
0.837993847348
1.47857688667
0.622281555816
0.633121003232
0.616206643779
0.62604110486
0.309461066026
0.734932814149
0.606893764747
1.56612418945
1.37470490607
1.73996257313
1.22350131002
1.18256211222
1.25900925367
1.43064154682
1.08336881811
0.404345006487
0.573219167332
1.45510313648
0.398645462901
0.479806749384
1.25580348959
1.55541907557
1.3479807078
1.34457613363
1.16286394755
1.67530444725
1.02667613821
0.736522522867
1.15023583115
1.99903690503
0.492655682032
1.36543036752
0.40930839488
1.77869975401
1.16914988931
0.300845675718
0.985308769771
0.52821125868
0.775073790635
0.958323723981
0.871069570228
1.43049208255
1.70121447082
1.17185617321
1.16710060148
0.582681102713
1.19375978602
1.78019217701
1.23262680215
0.592140386801
1.01940159749
1.38767103961
1.69884108096
1.21598190309
0.631699835206
2.01459915494
0.582216672292
0.589120931663
1.58233293893
0.642178363028
0.671800311446
0.584640544814
0.460360721507
0.977492190635
0.188349984781
1.12306819843
0.783619676919
1.7984768006
1.18421725658
1.68366739259
1.305436865
1.82262656369
0.840112779401
1.86026065051
1.40859995384
0.467209960471
1.14144075445
1.91714202556
1.49401437073
</DataArray>
<DataArray type="Float64" Name="Imag part" format="ascii">
0.0
0.0
0.0
0.0
0.0
0.0
0.0
0.0
0.0
0.0
0.0
0.0
0.0
0.0
0.0
0.0
0.0
0.0
0.0
0.0
0.0
0.0
0.0
0.0
0.0
0.0
0.0
0.0
0.0
0.0
0.0
0.0
0.0
0.0
0.0
0.0
0.0
0.0
0.0
0.0
0.0
0.0
0.0
0.0
0.0
0.0
0.0
0.0
0.0
0.0
0.0
0.0
0.0
0.0
0.0
0.0
0.0
0.0
0.0
0.0
0.0
0.0
0.0
0.0
0.0
0.0
0.0
0.0
0.0
0.0
0.0
0.0
0.0
0.0
0.0
0.0
0.0
0.0
0.0
0.0
0.0
0.0
0.0
0.0
0.0
0.0
0.0
0.0
0.0
0.0
0.0
0.0
0.0
0.0
0.0
0.0
0.0
0.0
0.0
0.0
0.0
0.0
0.0
0.0
0.0
0.0
0.0
0.0
0.0
0.0
0.0
0.0
0.0
0.0
0.0