<VTKFile type="UnstructuredGrid" version="1.0" byte_order="LittleEndian" header_type="UInt64">
<UnstructuredGrid>
<Piece NumberOfPoints="368" NumberOfCells= "640">
<Points>
<DataArray NumberOfComponents="3" type="Float64">
1.0 0.0 0.0 
0.0 1.0 0.0 
-1.0 0.0 0.0 
0.0 -1.0 0.0 
0.5 0.0 0.0 
0.0 0.5 0.0 
-0.5 0.0 0.0 
0.0 -0.5 0.0 
0.995184726651 0.0980171405408 0.0 
0.980785280308 0.195090322496 0.0 
0.956940335511 0.290284677984 0.0 
0.923879532096 0.382683433367 0.0 
0.881921263713 0.471396738015 0.0 
0.831469611372 0.555570234413 0.0 
0.773010452064 0.634393285746 0.0 
0.707106779519 0.707106782854 0.0 
0.63439328251 0.77301045472 0.0 
0.555570231508 0.831469613313 0.0 
0.471396735458 0.881921265079 0.0 
0.382683431182 0.923879533001 0.0 
0.29028467633 0.956940336013 0.0 
0.195090321406 0.980785280525 0.0 
0.0980171400308 0.995184726702 0.0 
-0.0980171405408 0.995184726651 0.0 
-0.195090322496 0.980785280308 0.0 
-0.290284677984 0.956940335511 0.0 
-0.382683433367 0.923879532096 0.0 
-0.471396738015 0.881921263713 0.0 
-0.555570234413 0.831469611372 0.0 
-0.634393285746 0.773010452064 0.0 
-0.707106782854 0.707106779519 0.0 
-0.77301045472 0.63439328251 0.0 
-0.831469613313 0.555570231508 0.0 
-0.881921265079 0.471396735458 0.0 
-0.923879533001 0.382683431182 0.0 
-0.956940336013 0.29028467633 0.0 
-0.980785280525 0.195090321406 0.0 
-0.995184726702 0.0980171400308 0.0 
-0.995184726651 -0.0980171405408 0.0 
-0.980785280308 -0.195090322496 0.0 
-0.956940335511 -0.290284677984 0.0 
-0.923879532096 -0.382683433367 0.0 
-0.881921263713 -0.471396738015 0.0 
-0.831469611372 -0.555570234413 0.0 
-0.773010452064 -0.634393285746 0.0 
-0.707106779519 -0.707106782854 0.0 
-0.63439328251 -0.77301045472 0.0 
-0.555570231508 -0.831469613313 0.0 
-0.471396735458 -0.881921265079 0.0 
-0.382683431182 -0.923879533001 0.0 
-0.29028467633 -0.956940336013 0.0 
-0.195090321406 -0.980785280525 0.0 
-0.0980171400308 -0.995184726702 0.0 
0.0980171405408 -0.995184726651 0.0 
0.195090322496 -0.980785280308 0.0 
0.290284677984 -0.956940335511 0.0 
0.382683433367 -0.923879532096 0.0 
0.471396738015 -0.881921263713 0.0 
0.555570234413 -0.831469611372 0.0 
0.634393285746 -0.773010452064 0.0 
0.707106782854 -0.707106779519 0.0 
0.77301045472 -0.63439328251 0.0 
0.831469613313 -0.555570231508 0.0 
0.881921265079 -0.471396735458 0.0 
0.923879533001 -0.382683431182 0.0 
0.956940336013 -0.29028467633 0.0 
0.980785280525 -0.195090321406 0.0 
0.995184726702 -0.0980171400308 0.0 
0.490392640154 0.0975451612479 0.0 
0.461939766048 0.191341716683 0.0 
0.415734805686 0.277785117206 0.0 
0.353553389759 0.353553391427 0.0 
0.277785115754 0.415734806656 0.0 
0.191341715591 0.461939766501 0.0 
0.0975451607029 0.490392640262 0.0 
-0.0975451612479 0.490392640154 0.0 
-0.191341716683 0.461939766048 0.0 
-0.277785117206 0.415734805686 0.0 
-0.353553391427 0.353553389759 0.0 
-0.415734806656 0.277785115754 0.0 
-0.461939766501 0.191341715591 0.0 
-0.490392640262 0.0975451607029 0.0 
-0.490392640154 -0.0975451612479 0.0 
-0.461939766048 -0.191341716683 0.0 
-0.415734805686 -0.277785117206 0.0 
-0.353553389759 -0.353553391427 0.0 
-0.277785115754 -0.415734806656 0.0 
-0.191341715591 -0.461939766501 0.0 
-0.0975451607029 -0.490392640262 0.0 
0.0975451612479 -0.490392640154 0.0 
0.191341716683 -0.461939766048 0.0 
0.277785117206 -0.415734805686 0.0 
0.353553391427 -0.353553389759 0.0 
0.415734806656 -0.277785115754 0.0 
0.461939766501 -0.191341715591 0.0 
0.490392640262 -0.0975451607029 0.0 
0.213535716974 0.704302312577 0.0 
-0.704302312577 0.213535716974 0.0 
-0.213535716974 -0.704302312577 0.0 
0.704302312577 -0.213535716974 0.0 
-0.569053131718 0.467804003043 0.0 
0.467804003043 0.569053131718 0.0 
-0.467804003043 -0.569053131718 0.0 
0.569053131718 -0.467804003043 0.0 
0.733048365471 0.0728158336813 0.0 
-0.0728158336813 0.733048365471 0.0 
-0.733048365471 -0.0728158336813 0.0 
0.0728158336813 -0.733048365471 0.0 
-0.650386305 -0.347536894292 0.0 
0.347536894292 -0.650386305 0.0 
-0.347536894292 0.650386305 0.0 
0.650386305 0.347536894292 0.0 
-0.730970137907 0.390388760085 0.0 
0.390388760085 0.730970137907 0.0 
-0.390388760085 -0.730970137907 0.0 
0.730970137907 -0.390388760085 0.0 
0.829295959711 -0.0770073768987 0.0 
0.0770073768987 0.829295959711 0.0 
-0.0770073768987 -0.829295959711 0.0 
-0.829295959711 0.0770073768987 0.0 
-0.646751382176 -0.524761444919 0.0 
0.524761444919 -0.646751382176 0.0 
0.646751382176 0.524761444919 0.0 
-0.524761444919 0.646751382176 0.0 
-0.239382805287 0.801676508446 0.0 
0.801676508446 0.239382805287 0.0 
-0.801676508446 -0.239382805287 0.0 
0.239382805287 -0.801676508446 0.0 
0.651769636103 -0.0641937059206 0.0 
0.0641937059206 0.651769636103 0.0 
-0.651769636103 0.0641937059206 0.0 
-0.0641937059206 -0.651769636103 0.0 
-0.308728691761 -0.577590759382 0.0 
0.577590759382 -0.308728691761 0.0 
0.308728691761 0.577590759382 0.0 
-0.577590759382 0.308728691761 0.0 
-0.50626253367 -0.415478925683 0.0 
0.415478925683 -0.50626253367 0.0 
-0.415478925683 0.50626253367 0.0 
0.50626253367 0.415478925683 0.0 
-0.190114190847 0.626722494698 0.0 
0.626722494698 0.190114190847 0.0 
-0.626722494698 -0.190114190847 0.0 
0.190114190847 -0.626722494698 0.0 
0.294550644834 0.82313260067 0.0 
-0.82313260067 0.294550644834 0.0 
-0.294550644834 -0.82313260067 0.0 
0.82313260067 -0.294550644834 0.0 
0.520764568168 0.704458577616 0.0 
-0.704458577616 0.520764568168 0.0 
-0.520764568168 -0.704458577616 0.0 
0.704458577616 -0.520764568168 0.0 
0.873195014147 0.0428698961416 0.0 
-0.0428698961416 0.873195014147 0.0 
-0.873195014147 -0.0428698961416 0.0 
0.0428698961416 -0.873195014147 0.0 
-0.749852356822 -0.44947614322 0.0 
0.44947614322 -0.749852356822 0.0 
0.749852356822 0.44947614322 0.0 
-0.44947614322 0.749852356822 0.0 
0.179155725368 0.590597279163 0.0 
-0.590597279163 0.179155725368 0.0 
-0.179155725368 -0.590597279163 0.0 
0.590597279163 -0.179155725368 0.0 
0.391530101187 0.477080810702 0.0 
-0.477080810702 0.391530101187 0.0 
-0.391530101187 -0.477080810702 0.0 
0.477080810702 -0.391530101187 0.0 
0.614200666039 0.0604934856927 0.0 
-0.0604934856927 0.614200666039 0.0 
-0.614200666039 -0.0604934856927 0.0 
0.0604934856927 -0.614200666039 0.0 
-0.290933112937 0.54429756913 0.0 
-0.54429756913 -0.290933112937 0.0 
0.290933112937 -0.54429756913 0.0 
0.54429756913 0.290933112937 0.0 
-0.615709428005 -0.637086188875 0.0 
0.637086188875 -0.615709428005 0.0 
0.615709428005 0.637086188875 0.0 
-0.637086188875 0.615709428005 0.0 
0.18764797381 0.865889802588 0.0 
-0.18764797381 -0.865889802588 0.0 
-0.865889802588 0.18764797381 0.0 
0.865889802588 -0.18764797381 0.0 
0.814753881174 0.352711579568 0.0 
-0.814753881174 -0.352711579568 0.0 
0.352711579568 -0.814753881174 0.0 
-0.352711579568 0.814753881174 0.0 
-0.871787636413 -0.157997559036 0.0 
0.871787636413 0.157997559036 0.0 
-0.157997559036 0.871787636413 0.0 
0.157997559036 -0.871787636413 0.0 
0.306461221915 0.669749121706 0.0 
-0.669749121706 0.306461221915 0.0 
-0.306461221915 -0.669749121706 0.0 
0.669749121706 -0.306461221915 0.0 
0.116678554046 0.728892891067 0.0 
-0.728892891067 0.116678554046 0.0 
0.728892891067 -0.116678554046 0.0 
-0.116678554046 -0.728892891067 0.0 
-0.502001745149 0.541367843571 0.0 
0.541367843571 0.502001745149 0.0 
-0.541367843571 -0.502001745149 0.0 
0.502001745149 -0.541367843571 0.0 
0.719173304544 0.170095439672 0.0 
-0.170095439672 0.719173304544 0.0 
-0.719173304544 -0.170095439672 0.0 
0.170095439672 -0.719173304544 0.0 
-0.792676091003 0.466332735002 0.0 
0.466332735002 0.792676091003 0.0 
-0.466332735002 -0.792676091003 0.0 
0.792676091003 -0.466332735002 0.0 
-0.0479731745066 -0.916878186604 0.0 
0.0479731745066 0.916878186604 0.0 
0.916878186604 -0.0479731745066 0.0 
-0.916878186604 0.0479731745066 0.0 
0.735703881164 0.549278466276 0.0 
-0.735703881164 -0.549278466276 0.0 
0.549278466276 -0.735703881164 0.0 
-0.549278466276 0.735703881164 0.0 
-0.257850089058 0.69205056308 0.0 
0.69205056308 0.257850089058 0.0 
-0.69205056308 -0.257850089058 0.0 
0.257850089058 -0.69205056308 0.0 
-0.598456979722 -0.429849345181 0.0 
0.429849345181 -0.598456979722 0.0 
0.598456979722 0.429849345181 0.0 
-0.429849345181 0.598456979722 0.0 
-0.62556842744 0.387075636781 0.0 
0.387075636781 0.62556842744 0.0 
-0.387075636781 -0.62556842744 0.0 
0.62556842744 -0.387075636781 0.0 
0.0248551646968 0.736252880139 0.0 
0.736252880139 -0.0248551646968 0.0 
-0.0248551646968 -0.736252880139 0.0 
-0.736252880139 0.0248551646968 0.0 
-0.830515925532 0.401070461312 0.0 
-0.401070461312 -0.830515925532 0.0 
0.830515925532 -0.401070461312 0.0 
0.401070461312 0.830515925532 0.0 
-0.297402722727 0.881616858584 0.0 
-0.881616858584 -0.297402722727 0.0 
0.297402722727 -0.881616858584 0.0 
0.881616858584 0.297402722727 0.0 
-0.273888662385 -0.512333823171 0.0 
0.512333823171 -0.273888662385 0.0 
-0.512333823171 0.273888662385 0.0 
0.273888662385 0.512333823171 0.0 
0.578154393363 -0.0569073204685 0.0 
-0.0569073204685 -0.578154393363 0.0 
0.0569073204685 0.578154393363 0.0 
-0.578154393363 0.0569073204685 0.0 
-0.449101795069 -0.368522079727 0.0 
0.368522079727 -0.449101795069 0.0 
0.449101795069 0.368522079727 0.0 
-0.368522079727 0.449101795069 0.0 
0.555922499231 0.168674599229 0.0 
-0.168674599229 0.555922499231 0.0 
-0.555922499231 -0.168674599229 0.0 
0.168674599229 -0.555922499231 0.0 
0.12114719733 0.917606791226 0.0 
-0.917606791226 0.12114719733 0.0 
-0.12114719733 -0.917606791226 0.0 
0.917606791226 -0.12114719733 0.0 
-0.695656384586 -0.610525233734 0.0 
0.610525233734 -0.695656384586 0.0 
-0.610525233734 0.695656384586 0.0 
0.695656384586 0.610525233734 0.0 
-0.188078954285 -0.784542538309 0.0 
0.188078954285 0.784542538309 0.0 
0.784542538309 -0.188078954285 0.0 
-0.784542538309 0.188078954285 0.0 
-0.548071419251 -0.592403152042 0.0 
0.592403152042 -0.548071419251 0.0 
0.548071419251 0.592403152042 0.0 
-0.592403152042 0.548071419251 0.0 
[...]
<PointData Scalars="solution">
<DataArray type="Float64" Name="Real part" format="ascii">
1.99411982461
1.44226850582
0.398568471989
1.43259350951
2.0
2.0
2.0
2.0
0.26858328124
0.29252326517
0.297655159211
0.299790398367
0.337550081376
0.357975401091
0.410979299402
0.435234989153
0.484397396863
0.514031902481
0.587205633809
0.683141303007
0.82155128576
0.967140768434
1.11511394401
1.13257457377
1.4566745919
1.50377478636
1.52155351627
1.47122504325
1.41124194665
1.29045419508
1.1571379795
0.993939058648
0.843241279579
0.696831476624
0.568505033727
0.496684904489
0.427644063763
0.415156556627
0.424152281905
0.4057684357
0.419169916659
0.413210305798
0.454320302705
0.479210194666
0.572787739012
0.685238237363
0.821249174479
0.969321557008
1.1082170245
1.24508613374
1.34236006805
1.43763858506
1.47714957888
1.47403999159
1.42736200191
1.3329485419
1.22920730452
1.09992765263
0.98719406774
0.869885967822
0.760015973242
0.65970221744
0.528081479744
0.410026942495
0.26255833857
0.157752810359
0.0792086045397
0.152925602502
1.99977335776
0.178536704459
0.289295885331
0.388217188705
0.471583195026
0.536488360687
0.580849265777
1.15047476556
0.580849269067
0.536488362869
0.47158319634
0.388217184407
0.289295882109
0.178536702306
6.8114812318e-10
0.178536704459
0.289295885331
0.388217188705
0.471583195026
0.536488360687
0.580849265777
1.15047476556
0.580849269067
0.536488362869
0.47158319634
0.388217184407
0.289295882109
0.178536702306
1.01530958773
1.72753241635
1.28850146029
0.671805632495
0.670085457882
0.352693953585
1.63843547848
0.258255258703
0.856136631479
1.54641253661
1.01818515758
0.474194689888
1.3874487269
0.349975982493
1.61322449295
0.169178448779
1.07408210246
0.954767499357
1.46944111667
0.611202161153
0.377107289766
1.55721673117
0.682687112649
0.579118072676
1.20921281388
0.997215368833
0.695098680273
1.38712138461
1.4531983031
0.0833869068683
0.426053616398
0.8955834553
1.98633294412
1.7630620719
1.74659949358
1.43101084603
0.386843721249
0.770471899154
1.28743771014
1.70831866667
1.54003139575
0.482284000014
1.68816328046
0.53799115977
1.74671899493
1.19634517595
0.309995254716
0.772437126383
1.11796920777
1.54067856226
0.499918549316
0.552673314023
1.15671137641
1.56319986146
1.21446825349
1.13515668503
0.791433475411
1.44073292097
0.549555613867
0.873311303622
0.67962736863
1.22167018649
1.39858676213
1.31470568767
1.60261244261
1.83947593228
1.80917396224
1.41122845339
1.12023161778
1.56867421102
1.3152939018
0.829358403118
0.806103496856
1.7342670436
1.57729283029
1.36162912758
1.13133071305
0.28455233296
0.866461805692
1.35591477051
1.56834851746
1.25255625199
0.414328659698
1.4696905735
0.471916431113
0.46499420926
0.55992908778
1.5873452319
0.426373683565
0.638357416324
1.25230485112
1.10036270159
1.1593624439
1.56720221576
1.35327841242
1.5261378133
1.01562851392
1.71584404611
1.53781692503
0.285425639951
1.64671536319
1.61619055958
2.0198250975
1.50082387406
0.317317192217
0.310650544518
1.3887676431
0.346746251505
1.14692695324
1.45421902419
0.527077804596
0.333014654145
0.977804119224
1.3912456923
1.41165666058
1.26099636995
1.50817966897
1.42781259551
1.02158881536
0.404425966895
1.42636705359
1.17944571345
1.39330436801
1.55086848993
1.66090075536
0.453409880738
0.443561074975
0.318906777729
1.70069443968
0.360986476323
0.861609213479
1.38593353892
1.11392453096
0.345807591493
1.68682629213
0.148337721729
1.65352624823
1.77140452614
1.59174934833
1.22007609099
1.30950363687
0.490016561285
1.15113180528
1.26583125127
1.00554102254
1.16535674393
1.38512018914
1.82196241336
0.362185000088
1.29276934122
0.722316642976
1.15949242269
1.68888539041
1.81766628992
0.871109687634
1.9144181103
1.40018260386
1.06577470416
0.445623848109
1.53093254044
0.53185592483
1.67941484403
1.27114673224
1.35622876264
1.02093522155
0.949099500926
0.920129902761
0.039202940972
0.642943323651
1.41469958324
1.53476191667
1.39866404779
1.54122203664
1.60578911747
1.94961583984
0.362709397025
1.31543227449
0.785517007205
0.384079574451
1.48341049133
1.82470021307
0.337260280913
0.487608100135
1.52978608085
0.596794500696
0.328058832611
0.627080890274
0.799797811047
0.351945077158
1.75675724959
0.464148895656
1.02124532787
1.28788619641
0.191687366666
1.08780424854
0.547729011934
1.87144601165
1.42872075812
0.602343905575
0.378637141393
1.58064075604
0.48716538492
1.71934810536
1.44716398614
1.7436288759
1.78051455749
1.7227122134
0.881523856185
0.354966992537
1.66529160148
1.73479486417
0.742194985014
1.73314866535
1.50324979385
1.38162507754
0.359745365611
1.00216423996
1.58785634029
1.08317219884
0.799300639603
1.16560191153
1.66249460445
1.04971106632
0.0884701821392
0.780021197978
1.30759508137
0.910514646776
1.36329706553
1.50507457628
1.52021490146
1.04312245437
1.41386847062
0.872374842103
1.2903062108
1.19577768708
1.33347263038
1.2435756433
1.36967800161
1.4966357233
0.850862911617
0.618266118188
1.42022962514
1.63933657094
1.29069366945
1.3288272759
1.57084453191
0.579244027787
0.832587538866
1.55726354083
0.751443959344
1.6091806261
0.487808066332
1.60260359205
1.14530273234
1.54702779394
0.325291111064
1.61222648506
1.71326012078
1.717602411
1.8583155913
1.02792320521
1.3008381608
1.76982984832
1.32528949038
1.87410832606
1.95185098629
0.071190426897
1.77365553497
1.37536288387
0.815194668811
1.39212706892
1.26928425968
</DataArray>
<DataArray type="Float64" Name="Imag part" format="ascii">
0.0
0.0
0.0
0.0
0.0
0.0
0.0
0.0
0.0
0.0
0.0
0.0
0.0
0.0
0.0
0.0
0.0
0.0
0.0
0.0
0.0
0.0
0.0
0.0
0.0
0.0
0.0
0.0
0.0
0.0
0.0
0.0
0.0
0.0
0.0
0.0
0.0
0.0
0.0
0.0
0.0
0.0
0.0
0.0
0.0
0.0
0.0
0.0
0.0
0.0
0.0
0.0
0.0
0.0
0.0
0.0
0.0
0.0
0.0
0.0
0.0
0.0
0.0
0.0
0.0
0.0
0.0
0.0
0.0
0.0
0.0
0.0
0.0
0.0
0.0
0.0
0.0
0.0
0.0
0.0
0.0
0.0
0.0
0.0
0.0
0.0
0.0
0.0
0.0
0.0
0.0
0.0
0.0
0.0
0.0
0.0
0.0
0.0
0.0
0.0
0.0
0.0
0.0
0.0
0.0
0.0
0.0
0.0
0.0
0.0
0.0
0.0
0.0
0.0
0.0
0.0
0.0
0.0
0.0
0.0
0.0
0.0
0.0
0.0
0.0
0.0
0.0
0.0
0.0
0.0
0.0
0.0
0.0
0.0
0.0
0.0
0.0
0.0
0.0
0.0
0.0
0.0
0.0
0.0
0.0
0.0
0.0
0.0
0.0
0.0
0.0
0.0
0.0
0.0
0.0
0.0
0.0
0.0
0.0
0.0
0.0
0.0
0.0
0.0
0.0
0.0
0.0
0.0
0.0
0.0
0.0
0.0
0.0
0.0
0.0
0.0
0.0
0.0
0.0
0.0
0.0
0.0
0.0
0.0
0.0
0.0
0.0
0.0
0.0
0.0
0.0
0.0
0.0
0.0
0.0
0.0
0.0
0.0
0.0
0.0
0.0
0.0
0.0
0.0
0.0
0.0
0.0
0.0
0.0
0.0
0.0
0.0
0.0
0.0
0.0
0.0
0.0
0.0
0.0
0.0
0.0
0.0
0.0
0.0
0.0
0.0
0.0
0.0
0.0
0.0
0.0
0.0
0.0
0.0
0.0
0.0
0.0
0.0
0.0
0.0
0.0
0.0
0.0
0.0
0.0
0.0
0.0
0.0
0.0
0.0
0.0
0.0
0.0
0.0
0.0
0.0
0.0
0.0
0.0
0.0
0.0
0.0
0.0
0.0
0.0
0.0
0.0
0.0
0.0
0.0
0.0
0.0
0.0
0.0
0.0
0.0
0.0
0.0
0.0
0.0
0.0
0.0
0.0
0.0
0.0
0.0
0.0
0.0
0.0
0.0
0.0
0.0
0.0
0.0
0.0
0.0
0.0
0.0
0.0
0.0
0.0
0.0
0.0
0.0
0.0
0.0
0.0
0.0
0.0
0.0
0.0
0.0
0.0
0.0
0.0
0.0
0.0
0.0
0.0
0.0
0.0
0.0
0.0
0.0
0.0
0.0
0.0
0.0
0.0
0.0
0.0
0.0
0.0
0.0
0.0
0.0
0.0
0.0
0.0
0.0
0.0
0.0
0.0
0.0
0.0
0.0
0.0
0.0
0.0
0.0
0.0
0.0
0.0
0.0
0.0
0.0
0.0
0.0
0.0
0.0
0.0
0.0
0.0
0.0
0.0
0.0
0.0
0.0
</DataArray>
</PointData>
</Piece>
</UnstructuredGrid>
</VTKFile>
