<VTKFile type="UnstructuredGrid" version="1.0" byte_order="LittleEndian" header_type="UInt64">
<UnstructuredGrid>
<Piece NumberOfPoints="368" NumberOfCells= "640">
<Points>
<DataArray NumberOfComponents="3" type="Float64">
1.0 0.0 0.0 
0.0 1.0 0.0 
-1.0 0.0 0.0 
0.0 -1.0 0.0 
0.5 0.0 0.0 
0.0 0.5 0.0 
-0.5 0.0 0.0 
0.0 -0.5 0.0 
0.995184726651 0.0980171405408 0.0 
0.980785280308 0.195090322496 0.0 
0.956940335511 0.290284677984 0.0 
0.923879532096 0.382683433367 0.0 
0.881921263713 0.471396738015 0.0 
0.831469611372 0.555570234413 0.0 
0.773010452064 0.634393285746 0.0 
0.707106779519 0.707106782854 0.0 
0.63439328251 0.77301045472 0.0 
0.555570231508 0.831469613313 0.0 
0.471396735458 0.881921265079 0.0 
0.382683431182 0.923879533001 0.0 
0.29028467633 0.956940336013 0.0 
0.195090321406 0.980785280525 0.0 
0.0980171400308 0.995184726702 0.0 
-0.0980171405408 0.995184726651 0.0 
-0.195090322496 0.980785280308 0.0 
-0.290284677984 0.956940335511 0.0 
-0.382683433367 0.923879532096 0.0 
-0.471396738015 0.881921263713 0.0 
-0.555570234413 0.831469611372 0.0 
-0.634393285746 0.773010452064 0.0 
-0.707106782854 0.707106779519 0.0 
-0.77301045472 0.63439328251 0.0 
-0.831469613313 0.555570231508 0.0 
-0.881921265079 0.471396735458 0.0 
-0.923879533001 0.382683431182 0.0 
-0.956940336013 0.29028467633 0.0 
-0.980785280525 0.195090321406 0.0 
-0.995184726702 0.0980171400308 0.0 
-0.995184726651 -0.0980171405408 0.0 
-0.980785280308 -0.195090322496 0.0 
-0.956940335511 -0.290284677984 0.0 
-0.923879532096 -0.382683433367 0.0 
-0.881921263713 -0.471396738015 0.0 
-0.831469611372 -0.555570234413 0.0 
-0.773010452064 -0.634393285746 0.0 
-0.707106779519 -0.707106782854 0.0 
-0.63439328251 -0.77301045472 0.0 
-0.555570231508 -0.831469613313 0.0 
-0.471396735458 -0.881921265079 0.0 
-0.382683431182 -0.923879533001 0.0 
-0.29028467633 -0.956940336013 0.0 
-0.195090321406 -0.980785280525 0.0 
-0.0980171400308 -0.995184726702 0.0 
0.0980171405408 -0.995184726651 0.0 
0.195090322496 -0.980785280308 0.0 
0.290284677984 -0.956940335511 0.0 
0.382683433367 -0.923879532096 0.0 
0.471396738015 -0.881921263713 0.0 
0.555570234413 -0.831469611372 0.0 
0.634393285746 -0.773010452064 0.0 
0.707106782854 -0.707106779519 0.0 
0.77301045472 -0.63439328251 0.0 
0.831469613313 -0.555570231508 0.0 
0.881921265079 -0.471396735458 0.0 
0.923879533001 -0.382683431182 0.0 
0.956940336013 -0.29028467633 0.0 
0.980785280525 -0.195090321406 0.0 
0.995184726702 -0.0980171400308 0.0 
0.490392640154 0.0975451612479 0.0 
0.461939766048 0.191341716683 0.0 
0.415734805686 0.277785117206 0.0 
0.353553389759 0.353553391427 0.0 
0.277785115754 0.415734806656 0.0 
0.191341715591 0.461939766501 0.0 
0.0975451607029 0.490392640262 0.0 
-0.0975451612479 0.490392640154 0.0 
-0.191341716683 0.461939766048 0.0 
-0.277785117206 0.415734805686 0.0 
-0.353553391427 0.353553389759 0.0 
-0.415734806656 0.277785115754 0.0 
-0.461939766501 0.191341715591 0.0 
-0.490392640262 0.0975451607029 0.0 
-0.490392640154 -0.0975451612479 0.0 
-0.461939766048 -0.191341716683 0.0 
-0.415734805686 -0.277785117206 0.0 
-0.353553389759 -0.353553391427 0.0 
-0.277785115754 -0.415734806656 0.0 
-0.191341715591 -0.461939766501 0.0 
-0.0975451607029 -0.490392640262 0.0 
0.0975451612479 -0.490392640154 0.0 
0.191341716683 -0.461939766048 0.0 
0.277785117206 -0.415734805686 0.0 
0.353553391427 -0.353553389759 0.0 
0.415734806656 -0.277785115754 0.0 
0.461939766501 -0.191341715591 0.0 
0.490392640262 -0.0975451607029 0.0 
0.213535716974 0.704302312577 0.0 
-0.704302312577 0.213535716974 0.0 
-0.213535716974 -0.704302312577 0.0 
0.704302312577 -0.213535716974 0.0 
-0.569053131718 0.467804003043 0.0 
0.467804003043 0.569053131718 0.0 
-0.467804003043 -0.569053131718 0.0 
0.569053131718 -0.467804003043 0.0 
0.733048365471 0.0728158336813 0.0 
-0.0728158336813 0.733048365471 0.0 
-0.733048365471 -0.0728158336813 0.0 
0.0728158336813 -0.733048365471 0.0 
-0.650386305 -0.347536894292 0.0 
0.347536894292 -0.650386305 0.0 
-0.347536894292 0.650386305 0.0 
0.650386305 0.347536894292 0.0 
-0.730970137907 0.390388760085 0.0 
0.390388760085 0.730970137907 0.0 
-0.390388760085 -0.730970137907 0.0 
0.730970137907 -0.390388760085 0.0 
0.829295959711 -0.0770073768987 0.0 
0.0770073768987 0.829295959711 0.0 
-0.0770073768987 -0.829295959711 0.0 
-0.829295959711 0.0770073768987 0.0 
-0.646751382176 -0.524761444919 0.0 
0.524761444919 -0.646751382176 0.0 
0.646751382176 0.524761444919 0.0 
-0.524761444919 0.646751382176 0.0 
-0.239382805287 0.801676508446 0.0 
0.801676508446 0.239382805287 0.0 
-0.801676508446 -0.239382805287 0.0 
0.239382805287 -0.801676508446 0.0 
0.651769636103 -0.0641937059206 0.0 
0.0641937059206 0.651769636103 0.0 
-0.651769636103 0.0641937059206 0.0 
-0.0641937059206 -0.651769636103 0.0 
-0.308728691761 -0.577590759382 0.0 
0.577590759382 -0.308728691761 0.0 
0.308728691761 0.577590759382 0.0 
-0.577590759382 0.308728691761 0.0 
-0.50626253367 -0.415478925683 0.0 
0.415478925683 -0.50626253367 0.0 
-0.415478925683 0.50626253367 0.0 
0.50626253367 0.415478925683 0.0 
-0.190114190847 0.626722494698 0.0 
0.626722494698 0.190114190847 0.0 
-0.626722494698 -0.190114190847 0.0 
0.190114190847 -0.626722494698 0.0 
0.294550644834 0.82313260067 0.0 
-0.82313260067 0.294550644834 0.0 
-0.294550644834 -0.82313260067 0.0 
0.82313260067 -0.294550644834 0.0 
0.520764568168 0.704458577616 0.0 
-0.704458577616 0.520764568168 0.0 
-0.520764568168 -0.704458577616 0.0 
0.704458577616 -0.520764568168 0.0 
0.873195014147 0.0428698961416 0.0 
-0.0428698961416 0.873195014147 0.0 
-0.873195014147 -0.0428698961416 0.0 
0.0428698961416 -0.873195014147 0.0 
-0.749852356822 -0.44947614322 0.0 
0.44947614322 -0.749852356822 0.0 
0.749852356822 0.44947614322 0.0 
-0.44947614322 0.749852356822 0.0 
0.179155725368 0.590597279163 0.0 
-0.590597279163 0.179155725368 0.0 
-0.179155725368 -0.590597279163 0.0 
0.590597279163 -0.179155725368 0.0 
0.391530101187 0.477080810702 0.0 
-0.477080810702 0.391530101187 0.0 
-0.391530101187 -0.477080810702 0.0 
0.477080810702 -0.391530101187 0.0 
0.614200666039 0.0604934856927 0.0 
-0.0604934856927 0.614200666039 0.0 
-0.614200666039 -0.0604934856927 0.0 
0.0604934856927 -0.614200666039 0.0 
-0.290933112937 0.54429756913 0.0 
-0.54429756913 -0.290933112937 0.0 
0.290933112937 -0.54429756913 0.0 
0.54429756913 0.290933112937 0.0 
-0.615709428005 -0.637086188875 0.0 
0.637086188875 -0.615709428005 0.0 
0.615709428005 0.637086188875 0.0 
-0.637086188875 0.615709428005 0.0 
0.18764797381 0.865889802588 0.0 
-0.18764797381 -0.865889802588 0.0 
-0.865889802588 0.18764797381 0.0 
0.865889802588 -0.18764797381 0.0 
0.814753881174 0.352711579568 0.0 
-0.814753881174 -0.352711579568 0.0 
0.352711579568 -0.814753881174 0.0 
-0.352711579568 0.814753881174 0.0 
-0.871787636413 -0.157997559036 0.0 
0.871787636413 0.157997559036 0.0 
-0.157997559036 0.871787636413 0.0 
0.157997559036 -0.871787636413 0.0 
0.306461221915 0.669749121706 0.0 
-0.669749121706 0.306461221915 0.0 
-0.306461221915 -0.669749121706 0.0 
0.669749121706 -0.306461221915 0.0 
0.116678554046 0.728892891067 0.0 
-0.728892891067 0.116678554046 0.0 
0.728892891067 -0.116678554046 0.0 
-0.116678554046 -0.728892891067 0.0 
-0.502001745149 0.541367843571 0.0 
0.541367843571 0.502001745149 0.0 
-0.541367843571 -0.502001745149 0.0 
0.502001745149 -0.541367843571 0.0 
0.719173304544 0.170095439672 0.0 
-0.170095439672 0.719173304544 0.0 
-0.719173304544 -0.170095439672 0.0 
0.170095439672 -0.719173304544 0.0 
-0.792676091003 0.466332735002 0.0 
0.466332735002 0.792676091003 0.0 
-0.466332735002 -0.792676091003 0.0 
0.792676091003 -0.466332735002 0.0 
-0.0479731745066 -0.916878186604 0.0 
0.0479731745066 0.916878186604 0.0 
0.916878186604 -0.0479731745066 0.0 
-0.916878186604 0.0479731745066 0.0 
0.735703881164 0.549278466276 0.0 
-0.735703881164 -0.549278466276 0.0 
0.549278466276 -0.735703881164 0.0 
-0.549278466276 0.735703881164 0.0 
-0.257850089058 0.69205056308 0.0 
0.69205056308 0.257850089058 0.0 
-0.69205056308 -0.257850089058 0.0 
0.257850089058 -0.69205056308 0.0 
-0.598456979722 -0.429849345181 0.0 
0.429849345181 -0.598456979722 0.0 
0.598456979722 0.429849345181 0.0 
-0.429849345181 0.598456979722 0.0 
-0.62556842744 0.387075636781 0.0 
0.387075636781 0.62556842744 0.0 
-0.387075636781 -0.62556842744 0.0 
0.62556842744 -0.387075636781 0.0 
0.0248551646968 0.736252880139 0.0 
0.736252880139 -0.0248551646968 0.0 
-0.0248551646968 -0.736252880139 0.0 
-0.736252880139 0.0248551646968 0.0 
-0.830515925532 0.401070461312 0.0 
-0.401070461312 -0.830515925532 0.0 
0.830515925532 -0.401070461312 0.0 
0.401070461312 0.830515925532 0.0 
-0.297402722727 0.881616858584 0.0 
-0.881616858584 -0.297402722727 0.0 
0.297402722727 -0.881616858584 0.0 
0.881616858584 0.297402722727 0.0 
-0.273888662385 -0.512333823171 0.0 
0.512333823171 -0.273888662385 0.0 
-0.512333823171 0.273888662385 0.0 
0.273888662385 0.512333823171 0.0 
0.578154393363 -0.0569073204685 0.0 
-0.0569073204685 -0.578154393363 0.0 
0.0569073204685 0.578154393363 0.0 
-0.578154393363 0.0569073204685 0.0 
-0.449101795069 -0.368522079727 0.0 
0.368522079727 -0.449101795069 0.0 
0.449101795069 0.368522079727 0.0 
-0.368522079727 0.449101795069 0.0 
0.555922499231 0.168674599229 0.0 
-0.168674599229 0.555922499231 0.0 
-0.555922499231 -0.168674599229 0.0 
0.168674599229 -0.555922499231 0.0 
0.12114719733 0.917606791226 0.0 
-0.917606791226 0.12114719733 0.0 
-0.12114719733 -0.917606791226 0.0 
0.917606791226 -0.12114719733 0.0 
-0.695656384586 -0.610525233734 0.0 
0.610525233734 -0.695656384586 0.0 
-0.610525233734 0.695656384586 0.0 
0.695656384586 0.610525233734 0.0 
-0.188078954285 -0.784542538309 0.0 
0.188078954285 0.784542538309 0.0 
0.784542538309 -0.188078954285 0.0 
-0.784542538309 0.188078954285 0.0 
-0.548071419251 -0.592403152042 0.0 
0.592403152042 -0.548071419251 0.0 
0.548071419251 0.592403152042 0.0 
-0.592403152042 0.548071419251 0.0 
[...]
<PointData Scalars="solution">
<DataArray type="Float64" Name="Real part" format="ascii">
0.260421695355
1.44226850582
0.398568471989
1.43259350951
1.95501686453e-17
6.02787591772e-18
5.01303467815e-16
2.22126409651e-16
0.240057932968
0.207786927766
0.18291523516
0.190505818206
0.285535212097
0.355429849507
0.454124380665
0.52764533877
0.622640776098
0.713853302
0.832041195496
0.966746737569
1.0963996134
1.23576026047
1.34589831567
1.47010035369
1.5078495315
1.48225493864
1.43065106615
1.32275490615
1.21314436173
1.06473713412
0.916141421702
0.767409748211
0.634074467441
0.533849680773
0.451091499916
0.439721298952
0.405225683943
0.41342715117
0.42415228189
0.403467810467
0.429436616776
0.456827728868
0.540430209152
0.631016774018
0.766224224705
0.916129350807
1.05961410134
1.2160866249
1.32939744666
1.43039227326
1.47354134461
1.50893380058
1.48038114299
1.33822022852
1.23793013177
1.10116944658
0.964135522393
0.83245064092
0.709992849557
0.617129815984
0.527618087367
0.464173167177
0.345132822687
0.274411797795
0.188550352379
0.191980012663
0.207303483506
0.239621460281
1.08788048554e-15
4.51828035988e-16
0.0
3.51083346858e-16
0.0
1.66533453694e-16
0.0
3.51083346858e-16
3.51083346858e-16
0.0
1.09344286978e-15
0.0
3.72380122987e-16
0.0
1.07981764043e-15
7.1143122604e-16
0.0
6.47365704914e-16
0.0
1.00074151062e-15
0.0
3.51083346858e-16
4.47545209131e-16
0.0
5.661048867e-16
0.0
2.98936698014e-16
0.0
0.513118617101
1.71732300025
1.15452370586
0.166464424929
1.62001443637
0.271520582568
1.51319749465
0.219786274559
0.218368270767
0.943043838215
1.73007836138
0.71877876023
1.68561147312
0.35583373661
1.35837294208
0.160202769346
1.56904628133
0.511806328321
1.55608550279
0.212366803899
0.255024850189
0.986737355432
1.21345559861
1.45777911437
1.60371710302
0.400913683551
0.309132338437
1.61963930213
1.42682141014
0.191808336931
1.47458808665
0.744828515189
0.153210775843
0.484608911873
1.49462084223
0.647510625361
1.00293767176
0.105788084781
0.22063569759
1.39586114574
1.29770216459
0.170166365609
1.16343144854
0.144687961086
0.827455217489
0.111524238334
1.46265233466
0.334651092146
0.766044992387
1.27317170443
1.51465058165
0.188144862411
0.490545297218
1.43482878251
1.56501384018
0.325961355821
0.258810436566
1.26182128857
1.18253733712
1.14449764553
1.38259117141
0.559368365344
0.263205047578
1.57568956125
0.25121986803
1.21086725079
0.645039802323
0.0900746151509
0.125502494818
1.05269904678
0.933634251515
0.105623172204
0.119878062196
0.502774206588
1.24289445893
0.368189196658
0.793662161667
1.1468834425
0.164548315211
0.0805323562863
1.48904581894
0.413663026801
0.436520520383
1.46862632059
0.961910583609
1.43558964133
1.13470334411
0.216529691967
0.20476719506
1.2196183482
0.717165539029
1.54265035105
1.12098710287
0.226955829473
1.41235603526
1.00509693089
0.392788532713
1.69529115676
1.2951887283
0.151808789957
0.658881822244
1.72721239001
0.204850648363
1.01138433145
1.55442506668
0.240581125175
1.59700643353
0.254915749815
0.181225733778
1.10046164237
1.7224827477
0.581625970767
1.10481985035
0.650562205406
1.50800650337
0.290467272686
1.34508298578
1.23721074692
0.256360275615
0.847357291397
0.370796313153
1.21556718037
0.556333639383
1.45695370694
1.23110246312
0.148582533225
1.71116563496
0.458867372454
1.64476213443
0.289371808657
0.202387979524
1.46640827639
1.66507159334
0.313036727453
1.40726496262
0.176412582224
0.793437983409
0.225646337201
0.86460446437
1.72918655678
1.01612363359
1.52391240028
0.237837908741
0.740774094789
1.51916751147
0.861094997342
0.914304371497
0.195207509092
0.576501465208
0.0541775987098
0.856492946902
0.0961473649196
0.104690257237
0.354439801666
0.256675166643
0.937061980885
0.78062414661
0.0666467801589
0.059746812322
0.684856589402
0.0760078784702
0.464202840489
0.910032761568
0.167076127774
1.15907248265
0.805788932081
1.42483517366
0.239898754597
1.25153404714
0.511661593474
1.37322738813
0.430055780391
1.30024562582
0.74425112136
0.204938849989
1.59291249807
1.63427106004
0.314575009528
0.348810970393
1.64289869983
0.229626760887
1.57778469312
1.21892731895
0.84541115034
1.48438272253
0.186477988843
1.61898004339
0.529754755497
0.203102001404
1.20007337122
0.139167204663
1.45348687577
0.186841979883
1.60112841437
0.616136134027
0.64435963117
0.131023761508
1.17943914175
1.46448439588
0.21860145608
1.5369651687
0.295165979581
0.111880804181
1.02230028187
0.31206471391
1.53729527401
0.992614028193
0.117417399731
1.58016259017
0.154353412354
0.441141306949
0.824243703411
0.178161866247
1.34376346074
1.32981437382
0.165590473992
0.160937924024
0.802869925572
1.58267762429
0.463720279687
0.573872166828
1.64783186988
1.38659983764
0.178545947059
0.20470046048
1.50187491786
0.783761528865
1.02870988628
0.537432506039
1.19235102056
1.36566262967
0.41969139009
0.201848664265
1.50678397599
0.969201831674
0.826722566669
0.24634901446
1.41456749391
1.19679259188
0.751188020661
0.97484033736
0.723293980598
0.26353764812
1.50023837323
1.65840120235
1.58056492828
0.255406388664
0.379028397874
1.65738455275
0.416422613921
1.54329412374
0.228956895362
1.04212824568
0.954018478127
0.24680271002
1.61973892855
0.280280684544
0.0344831019467
0.108425383153
0.55581176104
0.473598136123
0.053576168122
0.414711697781
0.0447860333374
0.217070862275
0.0467442004679
0.573243298312
0.158638206188
0.348282749072
0.521949322522
0.0710722290698
0.0328089815933
</DataArray>
<DataArray type="Float64" Name="Imag part" format="ascii">
0.0
0.0
0.0
0.0
0.0
0.0
0.0
0.0
0.0
0.0
0.0
0.0
0.0
0.0
0.0
0.0
0.0
0.0
0.0
0.0
0.0
0.0
0.0
0.0
0.0
0.0
0.0
0.0
0.0
0.0
0.0
0.0
0.0
0.0
0.0
0.0
0.0
0.0
0.0
0.0
0.0
0.0
0.0
0.0
0.0
0.0
0.0
0.0
0.0
0.0
0.0
0.0
0.0
0.0
0.0
0.0
0.0
0.0
0.0
0.0
0.0
0.0
0.0
0.0
0.0
0.0
0.0
0.0
0.0
0.0
0.0
0.0
0.0
0.0
0.0
0.0
0.0
0.0
0.0
0.0
0.0
0.0
0.0
0.0
0.0
0.0
0.0
0.0
0.0
0.0
0.0
0.0
0.0
0.0
0.0
0.0
0.0
0.0
0.0
0.0
0.0
0.0
0.0
0.0
0.0
0.0
0.0
0.0
0.0
0.0
0.0
0.0
0.0
0.0
0.0
0.0
0.0
0.0
0.0
0.0
0.0
0.0
0.0
0.0
0.0
0.0
0.0
0.0
0.0
0.0
0.0
0.0
0.0
0.0
0.0
0.0
0.0
0.0
0.0
0.0
0.0
0.0
0.0
0.0
0.0
0.0
0.0
0.0
0.0
0.0
0.0
0.0
0.0
0.0
0.0
0.0
0.0
0.0
0.0
0.0
0.0
0.0
0.0
0.0
0.0
0.0
0.0
0.0
0.0
0.0
0.0
0.0
0.0
0.0
0.0
0.0
0.0
0.0
0.0
0.0
0.0
0.0
0.0
0.0
0.0
0.0
0.0
0.0
0.0
0.0
0.0
0.0
0.0
0.0
0.0
0.0
0.0
0.0
0.0
0.0
0.0
0.0
0.0
0.0
0.0
0.0
0.0
0.0
0.0
0.0
0.0
0.0
0.0
0.0
0.0
0.0
0.0
0.0
0.0
0.0
0.0
0.0
0.0
0.0
0.0
0.0
0.0
0.0
0.0
0.0
0.0
0.0
0.0
0.0
0.0
0.0
0.0
0.0
0.0
0.0
0.0
0.0
0.0
0.0
0.0
0.0
0.0
0.0
0.0
0.0
0.0
0.0
0.0
0.0
0.0
0.0
0.0
0.0
0.0
0.0
0.0
0.0
0.0
0.0
0.0
0.0
0.0
0.0
0.0
0.0
0.0
0.0
0.0
0.0
0.0
0.0
0.0
0.0
0.0
0.0
0.0
0.0
0.0
0.0
0.0
0.0
0.0
0.0
0.0
0.0
0.0
0.0
0.0
0.0
0.0
0.0
0.0
0.0
0.0
0.0
0.0
0.0
0.0
0.0
0.0
0.0
0.0
0.0
0.0
0.0
0.0
0.0
0.0
0.0
0.0
0.0
0.0
0.0
0.0
0.0
0.0
0.0
0.0
0.0
0.0
0.0
0.0
0.0
0.0
0.0
0.0
0.0
0.0
0.0
0.0
0.0
0.0
0.0
0.0
0.0
0.0
0.0
0.0
0.0
0.0
0.0
0.0
0.0
0.0
0.0
0.0
0.0
0.0
0.0
0.0
0.0
0.0
0.0
0.0
0.0
0.0
0.0
0.0
0.0
0.0
0.0
0.0
0.0
</DataArray>
</PointData>
</Piece>
</UnstructuredGrid>
</VTKFile>
