<VTKFile type="UnstructuredGrid" version="1.0" byte_order="LittleEndian" header_type="UInt64">
<UnstructuredGrid>
<Piece NumberOfPoints="368.0" NumberOfCells= "640">
<Points>
<DataArray NumberOfComponents="3" type="Float64">
1.0 1.0 0.0 0.0 
2.0 0.0 1.0 0.0 
3.0 -1.0 0.0 0.0 
4.0 0.0 -1.0 0.0 
5.0 0.5 0.0 0.0 
6.0 0.0 0.5 0.0 
7.0 -0.5 0.0 0.0 
8.0 0.0 -0.5 0.0 
9.0 0.995184726651 0.0980171405408 0.0 
10.0 0.980785280308 0.195090322496 0.0 
11.0 0.956940335511 0.290284677984 0.0 
12.0 0.923879532096 0.382683433367 0.0 
13.0 0.881921263713 0.471396738015 0.0 
14.0 0.831469611372 0.555570234413 0.0 
15.0 0.773010452064 0.634393285746 0.0 
16.0 0.707106779519 0.707106782854 0.0 
17.0 0.63439328251 0.77301045472 0.0 
18.0 0.555570231508 0.831469613313 0.0 
19.0 0.471396735458 0.881921265079 0.0 
20.0 0.382683431182 0.923879533001 0.0 
21.0 0.29028467633 0.956940336013 0.0 
22.0 0.195090321406 0.980785280525 0.0 
23.0 0.0980171400308 0.995184726702 0.0 
24.0 -0.0980171405408 0.995184726651 0.0 
25.0 -0.195090322496 0.980785280308 0.0 
26.0 -0.290284677984 0.956940335511 0.0 
27.0 -0.382683433367 0.923879532096 0.0 
28.0 -0.471396738015 0.881921263713 0.0 
29.0 -0.555570234413 0.831469611372 0.0 
30.0 -0.634393285746 0.773010452064 0.0 
31.0 -0.707106782854 0.707106779519 0.0 
32.0 -0.77301045472 0.63439328251 0.0 
33.0 -0.831469613313 0.555570231508 0.0 
34.0 -0.881921265079 0.471396735458 0.0 
35.0 -0.923879533001 0.382683431182 0.0 
36.0 -0.956940336013 0.29028467633 0.0 
37.0 -0.980785280525 0.195090321406 0.0 
38.0 -0.995184726702 0.0980171400308 0.0 
39.0 -0.995184726651 -0.0980171405408 0.0 
40.0 -0.980785280308 -0.195090322496 0.0 
41.0 -0.956940335511 -0.290284677984 0.0 
42.0 -0.923879532096 -0.382683433367 0.0 
43.0 -0.881921263713 -0.471396738015 0.0 
44.0 -0.831469611372 -0.555570234413 0.0 
45.0 -0.773010452064 -0.634393285746 0.0 
46.0 -0.707106779519 -0.707106782854 0.0 
47.0 -0.63439328251 -0.77301045472 0.0 
48.0 -0.555570231508 -0.831469613313 0.0 
49.0 -0.471396735458 -0.881921265079 0.0 
50.0 -0.382683431182 -0.923879533001 0.0 
51.0 -0.29028467633 -0.956940336013 0.0 
52.0 -0.195090321406 -0.980785280525 0.0 
53.0 -0.0980171400308 -0.995184726702 0.0 
54.0 0.0980171405408 -0.995184726651 0.0 
55.0 0.195090322496 -0.980785280308 0.0 
56.0 0.290284677984 -0.956940335511 0.0 
57.0 0.382683433367 -0.923879532096 0.0 
58.0 0.471396738015 -0.881921263713 0.0 
59.0 0.555570234413 -0.831469611372 0.0 
60.0 0.634393285746 -0.773010452064 0.0 
61.0 0.707106782854 -0.707106779519 0.0 
62.0 0.77301045472 -0.63439328251 0.0 
63.0 0.831469613313 -0.555570231508 0.0 
64.0 0.881921265079 -0.471396735458 0.0 
65.0 0.923879533001 -0.382683431182 0.0 
66.0 0.956940336013 -0.29028467633 0.0 
67.0 0.980785280525 -0.195090321406 0.0 
68.0 0.995184726702 -0.0980171400308 0.0 
69.0 0.490392640154 0.0975451612479 0.0 
70.0 0.461939766048 0.191341716683 0.0 
71.0 0.415734805686 0.277785117206 0.0 
72.0 0.353553389759 0.353553391427 0.0 
73.0 0.277785115754 0.415734806656 0.0 
74.0 0.191341715591 0.461939766501 0.0 
75.0 0.0975451607029 0.490392640262 0.0 
76.0 -0.0975451612479 0.490392640154 0.0 
77.0 -0.191341716683 0.461939766048 0.0 
78.0 -0.277785117206 0.415734805686 0.0 
79.0 -0.353553391427 0.353553389759 0.0 
80.0 -0.415734806656 0.277785115754 0.0 
81.0 -0.461939766501 0.191341715591 0.0 
82.0 -0.490392640262 0.0975451607029 0.0 
83.0 -0.490392640154 -0.0975451612479 0.0 
84.0 -0.461939766048 -0.191341716683 0.0 
85.0 -0.415734805686 -0.277785117206 0.0 
86.0 -0.353553389759 -0.353553391427 0.0 
87.0 -0.277785115754 -0.415734806656 0.0 
88.0 -0.191341715591 -0.461939766501 0.0 
89.0 -0.0975451607029 -0.490392640262 0.0 
90.0 0.0975451612479 -0.490392640154 0.0 
91.0 0.191341716683 -0.461939766048 0.0 
92.0 0.277785117206 -0.415734805686 0.0 
93.0 0.353553391427 -0.353553389759 0.0 
94.0 0.415734806656 -0.277785115754 0.0 
95.0 0.461939766501 -0.191341715591 0.0 
96.0 0.490392640262 -0.0975451607029 0.0 
97.0 0.213535716974 0.704302312577 0.0 
98.0 -0.704302312577 0.213535716974 0.0 
99.0 -0.213535716974 -0.704302312577 0.0 
100.0 0.704302312577 -0.213535716974 0.0 
101.0 -0.569053131718 0.467804003043 0.0 
102.0 0.467804003043 0.569053131718 0.0 
103.0 -0.467804003043 -0.569053131718 0.0 
104.0 0.569053131718 -0.467804003043 0.0 
105.0 0.733048365471 0.0728158336813 0.0 
106.0 -0.0728158336813 0.733048365471 0.0 
107.0 -0.733048365471 -0.0728158336813 0.0 
108.0 0.0728158336813 -0.733048365471 0.0 
109.0 -0.650386305 -0.347536894292 0.0 
110.0 0.347536894292 -0.650386305 0.0 
111.0 -0.347536894292 0.650386305 0.0 
112.0 0.650386305 0.347536894292 0.0 
113.0 -0.730970137907 0.390388760085 0.0 
114.0 0.390388760085 0.730970137907 0.0 
115.0 -0.390388760085 -0.730970137907 0.0 
116.0 0.730970137907 -0.390388760085 0.0 
117.0 0.829295959711 -0.0770073768987 0.0 
118.0 0.0770073768987 0.829295959711 0.0 
119.0 -0.0770073768987 -0.829295959711 0.0 
120.0 -0.829295959711 0.0770073768987 0.0 
121.0 -0.646751382176 -0.524761444919 0.0 
122.0 0.524761444919 -0.646751382176 0.0 
123.0 0.646751382176 0.524761444919 0.0 
124.0 -0.524761444919 0.646751382176 0.0 
125.0 -0.239382805287 0.801676508446 0.0 
126.0 0.801676508446 0.239382805287 0.0 
127.0 -0.801676508446 -0.239382805287 0.0 
128.0 0.239382805287 -0.801676508446 0.0 
129.0 0.651769636103 -0.0641937059206 0.0 
130.0 0.0641937059206 0.651769636103 0.0 
131.0 -0.651769636103 0.0641937059206 0.0 
132.0 -0.0641937059206 -0.651769636103 0.0 
133.0 -0.308728691761 -0.577590759382 0.0 
134.0 0.577590759382 -0.308728691761 0.0 
135.0 0.308728691761 0.577590759382 0.0 
136.0 -0.577590759382 0.308728691761 0.0 
137.0 -0.50626253367 -0.415478925683 0.0 
138.0 0.415478925683 -0.50626253367 0.0 
139.0 -0.415478925683 0.50626253367 0.0 
140.0 0.50626253367 0.415478925683 0.0 
141.0 -0.190114190847 0.626722494698 0.0 
142.0 0.626722494698 0.190114190847 0.0 
143.0 -0.626722494698 -0.190114190847 0.0 
144.0 0.190114190847 -0.626722494698 0.0 
145.0 0.294550644834 0.82313260067 0.0 
146.0 -0.82313260067 0.294550644834 0.0 
147.0 -0.294550644834 -0.82313260067 0.0 
148.0 0.82313260067 -0.294550644834 0.0 
149.0 0.520764568168 0.704458577616 0.0 
150.0 -0.704458577616 0.520764568168 0.0 
151.0 -0.520764568168 -0.704458577616 0.0 
152.0 0.704458577616 -0.520764568168 0.0 
153.0 0.873195014147 0.0428698961416 0.0 
154.0 -0.0428698961416 0.873195014147 0.0 
155.0 -0.873195014147 -0.0428698961416 0.0 
156.0 0.0428698961416 -0.873195014147 0.0 
157.0 -0.749852356822 -0.44947614322 0.0 
158.0 0.44947614322 -0.749852356822 0.0 
159.0 0.749852356822 0.44947614322 0.0 
160.0 -0.44947614322 0.749852356822 0.0 
161.0 0.179155725368 0.590597279163 0.0 
162.0 -0.590597279163 0.179155725368 0.0 
163.0 -0.179155725368 -0.590597279163 0.0 
164.0 0.590597279163 -0.179155725368 0.0 
165.0 0.391530101187 0.477080810702 0.0 
166.0 -0.477080810702 0.391530101187 0.0 
167.0 -0.391530101187 -0.477080810702 0.0 
168.0 0.477080810702 -0.391530101187 0.0 
169.0 0.614200666039 0.0604934856927 0.0 
170.0 -0.0604934856927 0.614200666039 0.0 
171.0 -0.614200666039 -0.0604934856927 0.0 
172.0 0.0604934856927 -0.614200666039 0.0 
173.0 -0.290933112937 0.54429756913 0.0 
174.0 -0.54429756913 -0.290933112937 0.0 
175.0 0.290933112937 -0.54429756913 0.0 
176.0 0.54429756913 0.290933112937 0.0 
177.0 -0.615709428005 -0.637086188875 0.0 
178.0 0.637086188875 -0.615709428005 0.0 
179.0 0.615709428005 0.637086188875 0.0 
180.0 -0.637086188875 0.615709428005 0.0 
181.0 0.18764797381 0.865889802588 0.0 
182.0 -0.18764797381 -0.865889802588 0.0 
183.0 -0.865889802588 0.18764797381 0.0 
184.0 0.865889802588 -0.18764797381 0.0 
185.0 0.814753881174 0.352711579568 0.0 
186.0 -0.814753881174 -0.352711579568 0.0 
187.0 0.352711579568 -0.814753881174 0.0 
188.0 -0.352711579568 0.814753881174 0.0 
189.0 -0.871787636413 -0.157997559036 0.0 
190.0 0.871787636413 0.157997559036 0.0 
191.0 -0.157997559036 0.871787636413 0.0 
192.0 0.157997559036 -0.871787636413 0.0 
193.0 0.306461221915 0.669749121706 0.0 
194.0 -0.669749121706 0.306461221915 0.0 
195.0 -0.306461221915 -0.669749121706 0.0 
196.0 0.669749121706 -0.306461221915 0.0 
197.0 0.116678554046 0.728892891067 0.0 
198.0 -0.728892891067 0.116678554046 0.0 
199.0 0.728892891067 -0.116678554046 0.0 
200.0 -0.116678554046 -0.728892891067 0.0 
201.0 -0.502001745149 0.541367843571 0.0 
202.0 0.541367843571 0.502001745149 0.0 
203.0 -0.541367843571 -0.502001745149 0.0 
204.0 0.502001745149 -0.541367843571 0.0 
205.0 0.719173304544 0.170095439672 0.0 
206.0 -0.170095439672 0.719173304544 0.0 
207.0 -0.719173304544 -0.170095439672 0.0 
208.0 0.170095439672 -0.719173304544 0.0 
209.0 -0.792676091003 0.466332735002 0.0 
210.0 0.466332735002 0.792676091003 0.0 
211.0 -0.466332735002 -0.792676091003 0.0 
212.0 0.792676091003 -0.466332735002 0.0 
213.0 -0.0479731745066 -0.916878186604 0.0 
214.0 0.0479731745066 0.916878186604 0.0 
215.0 0.916878186604 -0.0479731745066 0.0 
216.0 -0.916878186604 0.0479731745066 0.0 
217.0 0.735703881164 0.549278466276 0.0 
218.0 -0.735703881164 -0.549278466276 0.0 
219.0 0.549278466276 -0.735703881164 0.0 
220.0 -0.549278466276 0.735703881164 0.0 
221.0 -0.257850089058 0.69205056308 0.0 
222.0 0.69205056308 0.257850089058 0.0 
223.0 -0.69205056308 -0.257850089058 0.0 
224.0 0.257850089058 -0.69205056308 0.0 
225.0 -0.598456979722 -0.429849345181 0.0 
226.0 0.429849345181 -0.598456979722 0.0 
227.0 0.598456979722 0.429849345181 0.0 
228.0 -0.429849345181 0.598456979722 0.0 
229.0 -0.62556842744 0.387075636781 0.0 
230.0 0.387075636781 0.62556842744 0.0 
231.0 -0.387075636781 -0.62556842744 0.0 
232.0 0.62556842744 -0.387075636781 0.0 
233.0 0.0248551646968 0.736252880139 0.0 
234.0 0.736252880139 -0.0248551646968 0.0 
235.0 -0.0248551646968 -0.736252880139 0.0 
236.0 -0.736252880139 0.0248551646968 0.0 
237.0 -0.830515925532 0.401070461312 0.0 
238.0 -0.401070461312 -0.830515925532 0.0 
239.0 0.830515925532 -0.401070461312 0.0 
[...]
<PointData Scalars="solution">
<DataArray type="Float64" Name="Real part" format="ascii">
-0.0
-0.0
-0.0
-0.0
-39.4784176044
39.4784176044
-39.4784176044
39.4784176044
-0.0
-0.0
-0.0
-0.0
-0.0
-0.0
-0.0
-0.0
-0.0
-0.0
-0.0
-0.0
-0.0
-0.0
-0.0
-0.0
-0.0
-0.0
-0.0
-0.0
-0.0
-0.0
-0.0
-0.0
-0.0
-0.0
-0.0
-0.0
-0.0
-0.0
-0.0
-0.0
-0.0
-0.0
-0.0
-0.0
-0.0
-0.0
-0.0
-0.0
-0.0
-0.0
-0.0
-0.0
-0.0
-0.0
-0.0
-0.0
-0.0
-0.0
-0.0
-0.0
-0.0
-0.0
-0.0
-0.0
-0.0
-0.0
-0.0
-0.0
-39.4065115082
-38.3549470206
-34.0731530176
-23.9120721308
-6.8571478007
14.2230205154
32.2928136282
32.2928135504
14.2230202627
-6.85714815554
-23.91207246
-34.0731531392
-38.3549470472
-39.4065115098
-39.4065115082
-38.3549470206
-34.0731530176
-23.9120721308
-6.8571478007
14.2230205154
32.2928136282
32.2928135504
14.2230202627
-6.85714815554
-23.91207246
-34.0731531392
-38.3549470472
-39.4065115098
-0.0
-0.0
-0.0
-0.0
-0.0
-0.0
-0.0
-0.0
-0.0
-0.0
-0.0
-0.0
-0.0
-0.0
-0.0
-0.0
-0.0
-0.0
-0.0
-0.0
-0.0
-0.0
-0.0
-0.0
-0.0
-0.0
-0.0
-0.0
-0.0
-0.0
-0.0
-0.0
-0.0
-0.0
-0.0
-0.0
-0.0
-0.0
-0.0
-0.0
-0.0
-0.0
-0.0
-0.0
-0.0
-0.0
-0.0
-0.0
-0.0
-0.0
-0.0
-0.0
-0.0
-0.0
-0.0
-0.0
-0.0
-0.0
-0.0
-0.0
-0.0
-0.0
-0.0
-0.0
-0.0
-0.0
-0.0
-0.0
-0.0
-0.0
-0.0
-0.0
-0.0
-0.0
-0.0
-0.0
-0.0
-0.0
-0.0
-0.0
-0.0
-0.0
-0.0
-0.0
-0.0
-0.0
-0.0
-0.0
-0.0
-0.0
-0.0
-0.0
-0.0
-0.0
-0.0
-0.0
-0.0
-0.0
-0.0
-0.0
-0.0
-0.0
-0.0
-0.0
-0.0
-0.0
-0.0
-0.0
-0.0
-0.0
-0.0
-0.0
-0.0
-0.0
-0.0
-0.0
-0.0
-0.0
-0.0
-0.0
-0.0
-0.0
-0.0
-0.0
-0.0
-0.0
-0.0
-0.0
-0.0
-0.0
-0.0
-0.0
-0.0
-0.0
-0.0
-0.0
-0.0
-0.0
-0.0
-0.0
-0.0
-0.0
-0.0
-0.0
-0.0
-0.0
-0.0
-0.0
-0.0
-0.0
-0.0
-0.0
-0.0
-0.0
-0.0
-0.0
-0.0
-0.0
-0.0
-0.0
-0.0
-0.0
-0.0
-0.0
-0.0
-0.0
-0.0
-0.0
-0.0
-0.0
-0.0
-0.0
-0.0
-0.0
-0.0
-0.0
-0.0
-0.0
-0.0
-0.0
-0.0
-0.0
-0.0
-0.0
-0.0
-0.0
-0.0
-0.0
-0.0
-0.0
-0.0
-0.0
-0.0
-0.0
-0.0
-0.0
-0.0
-0.0
-0.0
-0.0
-0.0
-0.0
-0.0
-0.0
-0.0
-0.0
-0.0
-0.0
-0.0
-0.0
-0.0
-0.0
-0.0
-0.0
-0.0
-0.0
-0.0
-0.0
-0.0
-0.0
-0.0
-0.0
-0.0
-0.0
-0.0
-0.0
-0.0
-0.0
-0.0
-0.0
-0.0
-0.0
-0.0
-0.0
-0.0
-0.0
-0.0
-0.0
-0.0
-0.0
-0.0
-0.0
-0.0
-0.0
-0.0
-0.0
-0.0
-0.0
-0.0
-0.0
-0.0
-0.0
-0.0
-0.0
-0.0
-0.0
-0.0
-0.0
-0.0
-0.0
-0.0
-0.0
-0.0
-0.0
-0.0
-0.0
-0.0
-0.0
-0.0
-0.0
-0.0
-0.0
</DataArray>
<DataArray type="Float64" Name="Imag part" format="ascii">
-0.0
-0.0
-0.0
-0.0
-4.83471177546e-15
1.5188694996e-14
4.83471177546e-15
-1.5188694996e-14
-0.0
-0.0
-0.0
-0.0
-0.0
-0.0
-0.0
-0.0
-0.0
-0.0
-0.0
-0.0
-0.0
-0.0
-0.0
-0.0
-0.0
-0.0
-0.0
-0.0
-0.0
-0.0
-0.0
-0.0
-0.0
-0.0
-0.0
-0.0
-0.0
-0.0
-0.0
-0.0
-0.0
-0.0
-0.0
-0.0
-0.0
-0.0
-0.0
-0.0
-0.0
-0.0
-0.0
-0.0
-0.0
-0.0
-0.0
-0.0
-0.0
-0.0
-0.0
-0.0
-0.0
-0.0
-0.0
-0.0
-0.0
-0.0
-0.0
-0.0
-2.38166061844
-9.35112269156
-19.9390496259
-31.4127086217
-38.87833562
-36.8273151881
-22.7094615638
22.7094616744
36.8273152857
38.8783355574
31.4127083711
19.9390494181
9.35112258253
2.3816605916
2.38166061844
9.35112269156
19.9390496259
31.4127086217
38.87833562
36.8273151881
22.7094615638
-22.7094616744
-36.8273152857
-38.8783355574
-31.4127083711
-19.9390494181
-9.35112258253
-2.3816605916
-0.0
-0.0
-0.0
-0.0
-0.0
-0.0
-0.0
-0.0
-0.0
-0.0
-0.0
-0.0
-0.0
-0.0
-0.0
-0.0
-0.0
-0.0
-0.0
-0.0
-0.0
-0.0
-0.0
-0.0
-0.0
-0.0
-0.0
-0.0
-0.0
-0.0
-0.0
-0.0
-0.0
-0.0
-0.0
-0.0
-0.0
-0.0
-0.0
-0.0
-0.0
-0.0
-0.0
-0.0
-0.0
-0.0
-0.0
-0.0
-0.0
-0.0
-0.0
-0.0
-0.0
-0.0
-0.0
-0.0
-0.0
-0.0
-0.0
-0.0
-0.0
-0.0
-0.0
-0.0
-0.0
-0.0
-0.0
-0.0
-0.0
-0.0
-0.0
-0.0
-0.0
-0.0
-0.0
-0.0
-0.0
-0.0
-0.0
-0.0
-0.0
-0.0
-0.0
-0.0
-0.0
-0.0
-0.0
-0.0
-0.0
-0.0
-0.0
-0.0
-0.0
-0.0
-0.0
-0.0
-0.0
-0.0
-0.0
-0.0
-0.0
-0.0
-0.0
-0.0
-0.0
-0.0
-0.0
-0.0
-0.0
-0.0
-0.0
-0.0
-0.0
-0.0
-0.0
-0.0
-0.0
-0.0
-0.0
-0.0
-0.0
-0.0
-0.0
-0.0
-0.0
-0.0
-0.0
-0.0
-0.0
-0.0
-0.0
-0.0
-0.0
-0.0
-0.0
-0.0
-0.0
-0.0
-0.0
-0.0
-0.0
-0.0
-0.0
-0.0
-0.0
-0.0
-0.0
-0.0
-0.0
-0.0
-0.0
-0.0
-0.0
-0.0
-0.0
-0.0
-0.0
-0.0
-0.0
-0.0
-0.0
-0.0
-0.0
-0.0
-0.0
-0.0
-0.0
-0.0
-0.0
-0.0
-0.0
-0.0
-0.0
-0.0
-0.0
-0.0
-0.0
-0.0
-0.0
-0.0
-0.0
-0.0
-0.0
-0.0
-0.0
-0.0
-0.0
-0.0
-0.0
-0.0
-0.0
-0.0
-0.0
-0.0
-0.0
-0.0
-0.0
-0.0
-0.0
-0.0
-0.0
-0.0
-0.0
-0.0
-0.0
-0.0
-0.0
-0.0
-0.0
-0.0
-0.0
-0.0
-0.0
-0.0
-0.0
-0.0
-0.0
-0.0
-0.0
-0.0
-0.0
-0.0
-0.0
-0.0
-0.0
-0.0
-0.0
-0.0
-0.0
-0.0
-0.0
-0.0
-0.0
-0.0
-0.0
-0.0
-0.0
-0.0
-0.0
-0.0
-0.0
-0.0
-0.0
-0.0
-0.0
-0.0
-0.0
-0.0
-0.0
-0.0
-0.0
-0.0
-0.0
-0.0
-0.0
-0.0
-0.0
-0.0
-0.0
-0.0
-0.0
-0.0
-0.0
-0.0
-0.0
-0.0
-0.0
-0.0
-0.0
-0.0
-0.0
-0.0
</DataArray>
</PointData>
</Piece>
</UnstructuredGrid>
</VTKFile>
