<VTKFile type="UnstructuredGrid" version="1.0" byte_order="LittleEndian" header_type="UInt64">
<UnstructuredGrid>
<Piece NumberOfPoints="368" NumberOfCells= "640">
<Points>
<DataArray NumberOfComponents="3" type="Float64">
1.0 0.0 0.0 
0.0 1.0 0.0 
-1.0 0.0 0.0 
0.0 -1.0 0.0 
0.5 0.0 0.0 
0.0 0.5 0.0 
-0.5 0.0 0.0 
0.0 -0.5 0.0 
0.995184726651 0.0980171405408 0.0 
0.980785280308 0.195090322496 0.0 
0.956940335511 0.290284677984 0.0 
0.923879532096 0.382683433367 0.0 
0.881921263713 0.471396738015 0.0 
0.831469611372 0.555570234413 0.0 
0.773010452064 0.634393285746 0.0 
0.707106779519 0.707106782854 0.0 
0.63439328251 0.77301045472 0.0 
0.555570231508 0.831469613313 0.0 
0.471396735458 0.881921265079 0.0 
0.382683431182 0.923879533001 0.0 
0.29028467633 0.956940336013 0.0 
0.195090321406 0.980785280525 0.0 
0.0980171400308 0.995184726702 0.0 
-0.0980171405408 0.995184726651 0.0 
-0.195090322496 0.980785280308 0.0 
-0.290284677984 0.956940335511 0.0 
-0.382683433367 0.923879532096 0.0 
-0.471396738015 0.881921263713 0.0 
-0.555570234413 0.831469611372 0.0 
-0.634393285746 0.773010452064 0.0 
-0.707106782854 0.707106779519 0.0 
-0.77301045472 0.63439328251 0.0 
-0.831469613313 0.555570231508 0.0 
-0.881921265079 0.471396735458 0.0 
-0.923879533001 0.382683431182 0.0 
-0.956940336013 0.29028467633 0.0 
-0.980785280525 0.195090321406 0.0 
-0.995184726702 0.0980171400308 0.0 
-0.995184726651 -0.0980171405408 0.0 
-0.980785280308 -0.195090322496 0.0 
-0.956940335511 -0.290284677984 0.0 
-0.923879532096 -0.382683433367 0.0 
-0.881921263713 -0.471396738015 0.0 
-0.831469611372 -0.555570234413 0.0 
-0.773010452064 -0.634393285746 0.0 
-0.707106779519 -0.707106782854 0.0 
-0.63439328251 -0.77301045472 0.0 
-0.555570231508 -0.831469613313 0.0 
-0.471396735458 -0.881921265079 0.0 
-0.382683431182 -0.923879533001 0.0 
-0.29028467633 -0.956940336013 0.0 
-0.195090321406 -0.980785280525 0.0 
-0.0980171400308 -0.995184726702 0.0 
0.0980171405408 -0.995184726651 0.0 
0.195090322496 -0.980785280308 0.0 
0.290284677984 -0.956940335511 0.0 
0.382683433367 -0.923879532096 0.0 
0.471396738015 -0.881921263713 0.0 
0.555570234413 -0.831469611372 0.0 
0.634393285746 -0.773010452064 0.0 
0.707106782854 -0.707106779519 0.0 
0.77301045472 -0.63439328251 0.0 
0.831469613313 -0.555570231508 0.0 
0.881921265079 -0.471396735458 0.0 
0.923879533001 -0.382683431182 0.0 
0.956940336013 -0.29028467633 0.0 
0.980785280525 -0.195090321406 0.0 
0.995184726702 -0.0980171400308 0.0 
0.490392640154 0.0975451612479 0.0 
0.461939766048 0.191341716683 0.0 
0.415734805686 0.277785117206 0.0 
0.353553389759 0.353553391427 0.0 
0.277785115754 0.415734806656 0.0 
0.191341715591 0.461939766501 0.0 
0.0975451607029 0.490392640262 0.0 
-0.0975451612479 0.490392640154 0.0 
-0.191341716683 0.461939766048 0.0 
-0.277785117206 0.415734805686 0.0 
-0.353553391427 0.353553389759 0.0 
-0.415734806656 0.277785115754 0.0 
-0.461939766501 0.191341715591 0.0 
-0.490392640262 0.0975451607029 0.0 
-0.490392640154 -0.0975451612479 0.0 
-0.461939766048 -0.191341716683 0.0 
-0.415734805686 -0.277785117206 0.0 
-0.353553389759 -0.353553391427 0.0 
-0.277785115754 -0.415734806656 0.0 
-0.191341715591 -0.461939766501 0.0 
-0.0975451607029 -0.490392640262 0.0 
0.0975451612479 -0.490392640154 0.0 
0.191341716683 -0.461939766048 0.0 
0.277785117206 -0.415734805686 0.0 
0.353553391427 -0.353553389759 0.0 
0.415734806656 -0.277785115754 0.0 
0.461939766501 -0.191341715591 0.0 
0.490392640262 -0.0975451607029 0.0 
0.213535716974 0.704302312577 0.0 
-0.704302312577 0.213535716974 0.0 
-0.213535716974 -0.704302312577 0.0 
0.704302312577 -0.213535716974 0.0 
-0.569053131718 0.467804003043 0.0 
0.467804003043 0.569053131718 0.0 
-0.467804003043 -0.569053131718 0.0 
0.569053131718 -0.467804003043 0.0 
0.733048365471 0.0728158336813 0.0 
-0.0728158336813 0.733048365471 0.0 
-0.733048365471 -0.0728158336813 0.0 
0.0728158336813 -0.733048365471 0.0 
-0.650386305 -0.347536894292 0.0 
0.347536894292 -0.650386305 0.0 
-0.347536894292 0.650386305 0.0 
0.650386305 0.347536894292 0.0 
-0.730970137907 0.390388760085 0.0 
0.390388760085 0.730970137907 0.0 
-0.390388760085 -0.730970137907 0.0 
0.730970137907 -0.390388760085 0.0 
0.829295959711 -0.0770073768987 0.0 
0.0770073768987 0.829295959711 0.0 
-0.0770073768987 -0.829295959711 0.0 
-0.829295959711 0.0770073768987 0.0 
-0.646751382176 -0.524761444919 0.0 
0.524761444919 -0.646751382176 0.0 
0.646751382176 0.524761444919 0.0 
-0.524761444919 0.646751382176 0.0 
-0.239382805287 0.801676508446 0.0 
0.801676508446 0.239382805287 0.0 
-0.801676508446 -0.239382805287 0.0 
0.239382805287 -0.801676508446 0.0 
0.651769636103 -0.0641937059206 0.0 
0.0641937059206 0.651769636103 0.0 
-0.651769636103 0.0641937059206 0.0 
-0.0641937059206 -0.651769636103 0.0 
-0.308728691761 -0.577590759382 0.0 
0.577590759382 -0.308728691761 0.0 
0.308728691761 0.577590759382 0.0 
-0.577590759382 0.308728691761 0.0 
-0.50626253367 -0.415478925683 0.0 
0.415478925683 -0.50626253367 0.0 
-0.415478925683 0.50626253367 0.0 
0.50626253367 0.415478925683 0.0 
-0.190114190847 0.626722494698 0.0 
0.626722494698 0.190114190847 0.0 
-0.626722494698 -0.190114190847 0.0 
0.190114190847 -0.626722494698 0.0 
0.294550644834 0.82313260067 0.0 
-0.82313260067 0.294550644834 0.0 
-0.294550644834 -0.82313260067 0.0 
0.82313260067 -0.294550644834 0.0 
0.520764568168 0.704458577616 0.0 
-0.704458577616 0.520764568168 0.0 
-0.520764568168 -0.704458577616 0.0 
0.704458577616 -0.520764568168 0.0 
0.873195014147 0.0428698961416 0.0 
-0.0428698961416 0.873195014147 0.0 
-0.873195014147 -0.0428698961416 0.0 
0.0428698961416 -0.873195014147 0.0 
-0.749852356822 -0.44947614322 0.0 
0.44947614322 -0.749852356822 0.0 
0.749852356822 0.44947614322 0.0 
-0.44947614322 0.749852356822 0.0 
0.179155725368 0.590597279163 0.0 
-0.590597279163 0.179155725368 0.0 
-0.179155725368 -0.590597279163 0.0 
0.590597279163 -0.179155725368 0.0 
0.391530101187 0.477080810702 0.0 
-0.477080810702 0.391530101187 0.0 
-0.391530101187 -0.477080810702 0.0 
0.477080810702 -0.391530101187 0.0 
0.614200666039 0.0604934856927 0.0 
-0.0604934856927 0.614200666039 0.0 
-0.614200666039 -0.0604934856927 0.0 
0.0604934856927 -0.614200666039 0.0 
-0.290933112937 0.54429756913 0.0 
-0.54429756913 -0.290933112937 0.0 
0.290933112937 -0.54429756913 0.0 
0.54429756913 0.290933112937 0.0 
-0.615709428005 -0.637086188875 0.0 
0.637086188875 -0.615709428005 0.0 
0.615709428005 0.637086188875 0.0 
-0.637086188875 0.615709428005 0.0 
0.18764797381 0.865889802588 0.0 
-0.18764797381 -0.865889802588 0.0 
-0.865889802588 0.18764797381 0.0 
0.865889802588 -0.18764797381 0.0 
0.814753881174 0.352711579568 0.0 
-0.814753881174 -0.352711579568 0.0 
0.352711579568 -0.814753881174 0.0 
-0.352711579568 0.814753881174 0.0 
-0.871787636413 -0.157997559036 0.0 
0.871787636413 0.157997559036 0.0 
-0.157997559036 0.871787636413 0.0 
0.157997559036 -0.871787636413 0.0 
0.306461221915 0.669749121706 0.0 
-0.669749121706 0.306461221915 0.0 
-0.306461221915 -0.669749121706 0.0 
0.669749121706 -0.306461221915 0.0 
0.116678554046 0.728892891067 0.0 
-0.728892891067 0.116678554046 0.0 
0.728892891067 -0.116678554046 0.0 
-0.116678554046 -0.728892891067 0.0 
-0.502001745149 0.541367843571 0.0 
0.541367843571 0.502001745149 0.0 
-0.541367843571 -0.502001745149 0.0 
0.502001745149 -0.541367843571 0.0 
0.719173304544 0.170095439672 0.0 
-0.170095439672 0.719173304544 0.0 
-0.719173304544 -0.170095439672 0.0 
0.170095439672 -0.719173304544 0.0 
-0.792676091003 0.466332735002 0.0 
0.466332735002 0.792676091003 0.0 
-0.466332735002 -0.792676091003 0.0 
0.792676091003 -0.466332735002 0.0 
-0.0479731745066 -0.916878186604 0.0 
0.0479731745066 0.916878186604 0.0 
0.916878186604 -0.0479731745066 0.0 
-0.916878186604 0.0479731745066 0.0 
0.735703881164 0.549278466276 0.0 
-0.735703881164 -0.549278466276 0.0 
0.549278466276 -0.735703881164 0.0 
-0.549278466276 0.735703881164 0.0 
-0.257850089058 0.69205056308 0.0 
0.69205056308 0.257850089058 0.0 
-0.69205056308 -0.257850089058 0.0 
0.257850089058 -0.69205056308 0.0 
-0.598456979722 -0.429849345181 0.0 
0.429849345181 -0.598456979722 0.0 
0.598456979722 0.429849345181 0.0 
-0.429849345181 0.598456979722 0.0 
-0.62556842744 0.387075636781 0.0 
0.387075636781 0.62556842744 0.0 
-0.387075636781 -0.62556842744 0.0 
0.62556842744 -0.387075636781 0.0 
0.0248551646968 0.736252880139 0.0 
0.736252880139 -0.0248551646968 0.0 
-0.0248551646968 -0.736252880139 0.0 
-0.736252880139 0.0248551646968 0.0 
-0.830515925532 0.401070461312 0.0 
-0.401070461312 -0.830515925532 0.0 
0.830515925532 -0.401070461312 0.0 
0.401070461312 0.830515925532 0.0 
-0.297402722727 0.881616858584 0.0 
-0.881616858584 -0.297402722727 0.0 
0.297402722727 -0.881616858584 0.0 
0.881616858584 0.297402722727 0.0 
-0.273888662385 -0.512333823171 0.0 
0.512333823171 -0.273888662385 0.0 
-0.512333823171 0.273888662385 0.0 
0.273888662385 0.512333823171 0.0 
0.578154393363 -0.0569073204685 0.0 
-0.0569073204685 -0.578154393363 0.0 
0.0569073204685 0.578154393363 0.0 
-0.578154393363 0.0569073204685 0.0 
-0.449101795069 -0.368522079727 0.0 
0.368522079727 -0.449101795069 0.0 
0.449101795069 0.368522079727 0.0 
-0.368522079727 0.449101795069 0.0 
0.555922499231 0.168674599229 0.0 
-0.168674599229 0.555922499231 0.0 
-0.555922499231 -0.168674599229 0.0 
0.168674599229 -0.555922499231 0.0 
0.12114719733 0.917606791226 0.0 
-0.917606791226 0.12114719733 0.0 
-0.12114719733 -0.917606791226 0.0 
0.917606791226 -0.12114719733 0.0 
-0.695656384586 -0.610525233734 0.0 
0.610525233734 -0.695656384586 0.0 
-0.610525233734 0.695656384586 0.0 
0.695656384586 0.610525233734 0.0 
-0.188078954285 -0.784542538309 0.0 
0.188078954285 0.784542538309 0.0 
0.784542538309 -0.188078954285 0.0 
-0.784542538309 0.188078954285 0.0 
-0.548071419251 -0.592403152042 0.0 
0.592403152042 -0.548071419251 0.0 
0.548071419251 0.592403152042 0.0 
-0.592403152042 0.548071419251 0.0 
[...]
<PointData Scalars="solution">
<DataArray type="Float64" Name="Real part" format="ascii">
0.0339759079628
1.41081664823
0.397388618556
1.40204258362
0.0
0.0
4.4408920985e-16
-2.22044604925e-16
0.087976417369
0.100034978611
0.165089865153
0.185044810899
0.186940461594
0.0773097841422
-0.0957221426461
-0.339648103782
-0.577113504318
-0.703545787948
-0.631047482088
-0.287722321298
0.223989256161
0.839285746144
1.28219893475
1.11522564919
0.535623524117
-0.172663913472
-0.783579356826
-1.13758646232
-1.20568038851
-1.0126823246
-0.694746271504
-0.323738626957
-0.0384007515164
0.191186573854
0.306034318759
0.399475370768
0.399731214218
0.413381556594
0.424081514854
0.398173744671
0.388512231133
0.313032452251
0.202808230583
-0.0429505640868
-0.332383051187
-0.693919107979
-1.00448893904
-1.20792914992
-1.14052283684
-0.78427528801
-0.17263952367
0.538196607854
1.12161318325
1.27310492102
0.841243678032
0.233773343914
-0.295474512781
-0.639708976864
-0.697982905861
-0.575176719555
-0.338350800519
-0.090281004411
0.0765100948448
0.178831431972
0.183077727754
0.177737559502
0.100369395314
0.0718553476334
-9.99200722163e-16
4.4408920985e-16
0.0
-3.33066907388e-16
0.0
-1.66533453694e-16
0.0
-3.33066907388e-16
-3.33066907388e-16
0.0
4.4408920985e-16
0.0
-3.33066907388e-16
0.0
-9.99200722163e-16
-6.66133814775e-16
0.0
3.33066907388e-16
0.0
9.43689570931e-16
0.0
-1.11022302463e-16
-5.55111512313e-17
0.0
5.55111512313e-16
0.0
1.11022302463e-16
0.0
0.407359900608
-0.270119941969
-0.443048478442
0.158178310942
-1.21770370195
-0.259680690527
-1.48510707601
-0.172287842826
0.212967308116
0.38061714682
-0.0285826923495
0.691746024947
-0.716951682452
-0.0487267364283
-1.22520026873
0.0175864964661
-0.553879239255
-0.187314083366
-1.3695930194
0.0612996979475
0.220309638518
0.981243250299
0.678480847702
0.16216217113
-1.14178591168
-0.398345852713
-0.18745884978
-1.59574968054
-0.381538474954
0.191674464054
-0.0582084322632
0.472915018116
0.153112816512
0.440390223948
-0.11580552931
0.195038605252
-0.921891101712
-0.00437042935717
0.00952468379936
-0.641015442127
-0.99059164485
-0.150331929808
-1.14002749177
-0.126197367219
-0.37338503725
0.0996789218391
-0.309995254503
0.296827519829
0.227635642326
-0.0455161406107
-0.666102160003
0.180114819152
-0.475659827434
-0.852620090304
-1.56466926909
-0.11224606396
0.193145582412
0.969362949149
0.256665090471
1.11606252666
-0.546928838957
-0.391759049325
0.0254262557946
-1.49085655219
0.231475981938
-0.272164474174
-0.31010109982
0.077777866409
-0.108871126783
-0.803897931579
-0.913640283307
-0.0944221362588
0.119830157127
0.129286911574
-0.118625911408
0.325193982076
-0.735095463771
-0.538851089394
0.021043050625
-0.00792445046596
-1.33045048013
-0.33238679491
-0.388422784022
-1.23369629097
0.779596296361
0.188089424881
0.182163030951
0.200471427248
0.154905605814
-0.13286994986
-0.0629157360907
-1.01155637111
0.213421610122
0.197240290867
0.3991381658
0.901793169278
0.0813246987584
-0.557253952218
-1.01973017975
0.0717442059367
0.658880798731
-0.0740738162017
0.203042700348
0.161842951618
-1.45070543335
-0.221951752336
-1.34451074806
-0.254901315522
0.181051102659
-0.15643392782
-0.166536938969
0.545226587501
-0.307269058879
-0.496745846914
-1.40611270137
0.0738823443993
1.0912186427
1.23027013685
0.168711060422
0.338714401696
-0.0939990406791
-0.664773047795
-0.553318670827
-1.45512696376
-0.72838382674
0.120736555214
-0.394020755135
0.257971534202
-1.06228140657
-0.225661278042
-0.111645898301
-1.46639203492
-0.878832253832
-0.152585122854
-1.37050730435
-0.0416991481804
0.666013840187
0.217342681887
0.55412772403
0.000712648242515
-0.0836433862246
-1.16172997926
0.151598370326
-0.30061043759
-0.481316760139
0.172021832012
0.214232588376
0.194739078515
-0.542778349004
0.0143830339564
-0.392059409009
0.0266558932787
0.10447556504
0.0628433534605
0.21180115311
-0.0847430405918
-0.58740862377
-0.0563469178651
-0.0482019933407
-0.66570524622
0.0723937811872
-0.246086397208
-0.200015092918
0.161504024985
1.10378970771
0.326548597198
0.775117121305
0.172350922643
-0.8983060992
-0.483154097523
-1.29514378094
-0.240349453637
-0.0912110731375
0.640983070208
0.204547277009
-0.038713172089
-1.52499044012
-0.269151319735
-0.343568760239
-1.36311606749
0.217358114148
0.0628615713056
0.348360396829
0.837727919339
-1.13270062933
0.0979307720527
-0.452042797666
0.00158746998462
-0.123273236822
-1.19882112632
-0.0780467718987
-0.912750038508
0.184724039819
-0.072882842663
0.442974463058
0.404493941823
-0.0536365131346
-1.16797763373
-0.850583369256
-0.0991821145006
-0.511638084941
0.139355488198
0.0595559106536
-0.782577051564
0.185100200712
-0.448892236206
-0.689553221231
0.0820633198683
-0.196285275907
0.153406093872
0.438993828885
-0.108642880094
-0.178145287732
-1.17409624869
-1.20882329135
-0.163698390079
0.160894651519
-0.0137240743067
-0.165831450141
0.463622582575
0.241072105195
-0.301538939532
-0.772678508
0.146340043182
0.186514068373
0.0694591596523
0.270953758117
0.618822781134
-0.521859482358
-0.778188995235
-1.31864228141
-0.185909520149
0.199102700334
-0.20580606483
0.418297069851
0.232064048967
0.166607129853
0.909404548246
1.17085224793
0.349834518713
-0.1100824314
-0.420767363992
0.136744052066
-1.25803861743
-1.03303722892
-1.58020739905
-0.118375195087
-0.329369485071
-0.828106205326
-0.252263316096
-1.49404604448
-0.0346315815973
0.748127956284
0.857929816576
0.227053117
0.105860022894
-0.139955593002
0.0273872662615
0.102708201963
-0.137786886606
-0.365219236933
-0.0428257827515
-0.40603990669
-0.0425730821835
0.0483588408033
0.0464260140723
-0.0696808761201
0.136034467179
-0.323696374911
-0.253878190858
0.015992229007
-0.00913763010885
</DataArray>
<DataArray type="Float64" Name="Imag part" format="ascii">
-0.258195850256
0.299557720588
0.0306449458517
0.294280065911
1.95501686453e-17
6.02787591772e-18
-2.32572441485e-16
-6.02787591772e-18
-0.223356130804
-0.182121965739
-0.0787611558923
0.0452866948413
0.215832391375
0.346920127978
0.443921417056
0.403792978051
0.233712513986
-0.12087125811
-0.542283713892
-0.922938308029
-1.07327579186
-0.907029689519
-0.409155432382
0.957844873299
1.40950971975
1.47216401128
1.19698198175
0.674964875005
0.134365334661
-0.328845973412
-0.59719571565
-0.69578087288
-0.632910588111
-0.498440744361
-0.331400870605
-0.18377771601
-0.0665042202206
0.00613986910311
0.00774770876863
-0.0651455534748
-0.182959159618
-0.332719488008
-0.500932762525
-0.629553348126
-0.690377483562
-0.598138160454
-0.337318862648
0.140619515153
0.683011881174
1.19621667269
1.46339321071
1.40968990414
0.966184348703
-0.412355720319
-0.908174039113
-1.07606885178
-0.917742947583
-0.532678603369
-0.13003733905
0.223653640834
0.404845133236
0.455308762677
0.33654549571
0.208137343378
0.0450974609316
-0.0725650411992
-0.181385552782
-0.228594079634
4.30211422042e-16
8.32667268469e-17
0.0
-1.11022302463e-16
0.0
0.0
0.0
1.11022302463e-16
-1.11022302463e-16
0.0
-9.99200722163e-16
0.0
1.66533453694e-16
0.0
4.09394740331e-16
-2.49800180541e-16
0.0
-5.55111512313e-16
0.0
3.33066907388e-16
0.0
-3.33066907388e-16
-4.4408920985e-16
0.0
1.11022302463e-16
0.0
2.77555756156e-16
0.0
-0.312007414323
-1.6959461973
1.06612993258
0.0518654674551
-1.06847764052
-0.0793055214058
-0.290213077925
0.136465767499
-0.0482662133522
0.862822269267
-1.72984223737
0.195269923766
-1.52553804389
-0.352481706287
0.586567431142
0.159234551678
-1.4680340668
-0.476297335582
0.738658955945
0.203327338127
-0.128457531465
0.10398217322
1.00605080841
-1.44873164408
-1.126158727
-0.045303016282
0.245808832849
-0.27715415574
1.37486280354
0.00716505030788
-1.47343876822
-0.575431058146
-0.00547788776295
0.202243042198
-1.49012769299
0.617438217489
0.39496932795
0.105697768324
-0.220430014856
-1.23997078238
-0.838307283247
-0.0797301879148
-0.232185385943
0.0707730922749
0.738421120301
0.050017679643
-1.4294246375
-0.154547005622
-0.731441689202
-1.27235783878
1.36032139471
0.054379602549
-0.119926715907
-1.15402453038
-0.032838975721
0.306025532618
-0.172271953811
0.807792323006
-1.15434725495
0.253533621442
-1.26981384163
-0.399271606078
0.261974049453
0.510043463064
-0.0976232138309
-1.17988389176
0.565609100414
0.0454317046946
-0.0624335963924
-0.679649467523
-0.192183111433
0.0473361879615
0.00338869276434
0.485867057234
-1.23722048527
0.172661977741
0.299222803284
-1.01241351934
-0.163197236678
0.0801415216591
-0.668699462268
0.24624402188
0.199193136349
-0.796778972611
-0.563472790433
1.42321466636
-1.11998585227
-0.0818310109947
0.133917353096
-1.21235906055
-0.714400462292
1.16469902277
-1.10048321256
-0.11227295396
1.35478348637
-0.443834338838
-0.384277406053
-1.60108717405
0.798538792071
0.133785939555
0.00116135581492
-1.72562328159
-0.0271560300866
0.998351203196
-0.558292963923
0.0928261677845
-0.861812274849
0.00271271980394
0.00795391786545
1.08928612061
-1.7144130961
-0.202525895018
-1.06123165575
-0.420088974714
0.544913465828
0.280913929323
0.786441423403
0.130865666562
-0.193021162064
-0.776715477744
0.358683824836
-1.01768382365
-0.0578408750227
-0.0729357491064
0.992507065786
0.0865993846077
-1.66518331567
-0.37948643328
-1.25570724777
-0.181143675678
0.168807842378
0.00690166661436
-1.41425502671
-0.273330885592
0.319537797083
0.171413477323
0.431241693481
-0.06065004635
0.663689193275
-1.72918640992
-1.01267518123
0.986251721935
0.183261575211
-0.677037387684
1.44090391918
-0.843737568062
-0.888851439677
0.0135152841336
0.194282277215
0.052233519278
-0.761491686034
-0.0923784560084
-0.00670121406411
0.348824147574
0.144991078045
-0.933222252784
-0.514125633469
-0.0355923889709
0.0353022580102
-0.160826220506
0.0231589730983
0.393606100344
-0.887780147183
-0.0427888114503
-0.353690968509
-0.736655833298
1.1955537296
-0.166872921474
-0.871426200709
0.16840339748
-0.456460344596
0.356623210663
1.29704249259
-0.37822008851
-0.0126626894126
-1.59244199794
-0.587576424997
0.162834282953
0.0602461621545
-0.917077272894
-0.0740533559628
-1.57653194091
1.16808768627
-0.113718715604
0.959365077151
0.158693428371
-1.5545911649
-0.529752376975
-0.161412924073
0.0548087894253
0.115222446815
-1.13115492539
-0.0280527103789
-1.5994687526
0.428249180655
0.501581484217
0.119542254197
0.164027242256
-1.19215035868
-0.194806326293
-1.44930617877
-0.260198008085
0.0947122370677
0.657777336695
-0.251241519984
-1.47029674548
0.714002075666
0.0839789098039
-1.567924074
0.0170747260096
-0.0434749456216
0.817052267127
0.00243044102019
-0.653604037047
-0.554213423798
0.0249608125324
0.00373182286271
0.802752618913
-1.57396581684
0.00951833594986
-0.520781627898
-1.62000745039
1.15135877685
0.102290014042
-0.0843491601603
1.5002678741
-0.735436057786
-0.821767847796
0.128438231146
-0.903395175949
-0.355270251722
0.376269203143
-0.0331812896846
1.49266265914
-0.874288140074
-0.793483761281
-0.181465978099
1.08350568178
-0.247825586873
-0.664755031497
-0.968604946116
-0.58831029888
0.22528461155
0.817345712384
-1.29735447416
0.0336164911815
0.226317777823
-0.18755870734
-1.4356753353
-0.331317087903
0.386759834173
0.226322587229
0.725490069861
0.417262131566
-0.0967391323815
-1.61627592082
0.242836764342
0.0209528510373
-0.0347431858292
-0.538462150564
-0.301513023787
-0.0321925165583
-0.0843646042592
0.0139040086125
0.211615646314
0.00544476764811
-0.568992490779
0.0816131374346
0.128536104541
-0.456044909508
-0.0692496235104
0.0315108392332
</DataArray>
</PointData>
</Piece>
</UnstructuredGrid>
</VTKFile>
