<VTKFile type="UnstructuredGrid" version="1.0" byte_order="LittleEndian" header_type="UInt64">
<UnstructuredGrid>
<Piece NumberOfPoints="3324" NumberOfCells= "6348">
<Points>
<DataArray NumberOfComponents="3" type="Float64">
1.0 0.0 0.0 
0.0 1.0 0.0 
-1.0 0.0 0.0 
0.0 -1.0 0.0 
0.5 0.0 0.0 
0.0 0.5 0.0 
-0.5 0.0 0.0 
0.0 -0.5 0.0 
0.999506560364 0.0314107591483 0.0 
0.99802672842 0.0627905196672 0.0 
0.995561964584 0.0941083135167 0.0 
0.992114701281 0.125333233833 0.0 
0.987688340539 0.156434465394 0.0 
0.982287250644 0.187381315029 0.0 
0.975916761821 0.218143241922 0.0 
0.968583160975 0.248689887765 0.0 
0.960293685477 0.278991106726 0.0 
0.951056516046 0.309016995142 0.0 
0.94088076865 0.338737921091 0.0 
0.92977648552 0.368124553616 0.0 
0.917754625247 0.397147891645 0.0 
0.904827051957 0.425779292646 0.0 
0.891006523612 0.453990500871 0.0 
0.876306679397 0.481753675279 0.0 
0.860742026267 0.509041416996 0.0 
0.844327924662 0.535826796303 0.0 
0.827080573337 0.562083379231 0.0 
0.809016993345 0.587785253711 0.0 
0.790155011189 0.612907055183 0.0 
0.770513241481 0.637423991314 0.0 
0.750111068243 0.661311866897 0.0 
0.728968625903 0.684547107546 0.0 
0.707106779558 0.707106782815 0.0 
0.684547104286 0.728968628964 0.0 
0.661311863705 0.750111071057 0.0 
0.637423988153 0.770513244096 0.0 
0.612907052096 0.790155013584 0.0 
0.587785250774 0.809016995478 0.0 
0.562083376379 0.827080575275 0.0 
0.535826793563 0.844327926401 0.0 
0.509041414373 0.860742027818 0.0 
0.481753672822 0.876306680747 0.0 
0.453990498452 0.891006524844 0.0 
0.425779290352 0.904827053037 0.0 
0.397147889472 0.917754626187 0.0 
0.368124551631 0.929776486305 0.0 
0.338737919221 0.940880769323 0.0 
0.309016993489 0.951056516583 0.0 
0.27899110516 0.960293685932 0.0 
0.248689886433 0.968583161316 0.0 
0.21814324071 0.975916762092 0.0 
0.187381314041 0.982287250833 0.0 
0.156434464564 0.987688340671 0.0 
0.125333233216 0.992114701358 0.0 
0.0941083130224 0.995561964631 0.0 
0.0627905193342 0.998026728441 0.0 
0.0314107589634 0.999506560369 0.0 
-0.0314107591483 0.999506560364 0.0 
-0.0627905196672 0.99802672842 0.0 
-0.0941083135167 0.995561964584 0.0 
-0.125333233833 0.992114701281 0.0 
-0.156434465394 0.987688340539 0.0 
-0.187381315029 0.982287250644 0.0 
-0.218143241922 0.975916761821 0.0 
-0.248689887765 0.968583160975 0.0 
-0.278991106726 0.960293685477 0.0 
-0.309016995142 0.951056516046 0.0 
-0.338737921091 0.94088076865 0.0 
-0.368124553616 0.92977648552 0.0 
-0.397147891645 0.917754625247 0.0 
-0.425779292646 0.904827051957 0.0 
-0.453990500871 0.891006523612 0.0 
-0.481753675279 0.876306679397 0.0 
-0.509041416996 0.860742026267 0.0 
-0.535826796303 0.844327924662 0.0 
-0.562083379231 0.827080573337 0.0 
-0.587785253711 0.809016993345 0.0 
-0.612907055183 0.790155011189 0.0 
-0.637423991314 0.770513241481 0.0 
-0.661311866897 0.750111068243 0.0 
-0.684547107546 0.728968625903 0.0 
-0.707106782815 0.707106779558 0.0 
-0.728968628964 0.684547104286 0.0 
-0.750111071057 0.661311863705 0.0 
-0.770513244096 0.637423988153 0.0 
-0.790155013584 0.612907052096 0.0 
-0.809016995478 0.587785250774 0.0 
-0.827080575275 0.562083376379 0.0 
-0.844327926401 0.535826793563 0.0 
-0.860742027818 0.509041414373 0.0 
-0.876306680747 0.481753672822 0.0 
-0.891006524844 0.453990498452 0.0 
-0.904827053037 0.425779290352 0.0 
-0.917754626187 0.397147889472 0.0 
-0.929776486305 0.368124551631 0.0 
-0.940880769323 0.338737919221 0.0 
-0.951056516583 0.309016993489 0.0 
-0.960293685932 0.27899110516 0.0 
-0.968583161316 0.248689886433 0.0 
-0.975916762092 0.21814324071 0.0 
-0.982287250833 0.187381314041 0.0 
-0.987688340671 0.156434464564 0.0 
-0.992114701358 0.125333233216 0.0 
-0.995561964631 0.0941083130224 0.0 
-0.998026728441 0.0627905193342 0.0 
-0.999506560369 0.0314107589634 0.0 
-0.999506560364 -0.0314107591483 0.0 
-0.99802672842 -0.0627905196672 0.0 
-0.995561964584 -0.0941083135167 0.0 
-0.992114701281 -0.125333233833 0.0 
-0.987688340539 -0.156434465394 0.0 
-0.982287250644 -0.187381315029 0.0 
-0.975916761821 -0.218143241922 0.0 
-0.968583160975 -0.248689887765 0.0 
-0.960293685477 -0.278991106726 0.0 
-0.951056516046 -0.309016995142 0.0 
-0.94088076865 -0.338737921091 0.0 
-0.92977648552 -0.368124553616 0.0 
-0.917754625247 -0.397147891645 0.0 
-0.904827051957 -0.425779292646 0.0 
-0.891006523612 -0.453990500871 0.0 
-0.876306679397 -0.481753675279 0.0 
-0.860742026267 -0.509041416996 0.0 
-0.844327924662 -0.535826796303 0.0 
-0.827080573337 -0.562083379231 0.0 
-0.809016993345 -0.587785253711 0.0 
-0.790155011189 -0.612907055183 0.0 
-0.770513241481 -0.637423991314 0.0 
-0.750111068243 -0.661311866897 0.0 
-0.728968625903 -0.684547107546 0.0 
-0.707106779558 -0.707106782815 0.0 
-0.684547104286 -0.728968628964 0.0 
-0.661311863705 -0.750111071057 0.0 
-0.637423988153 -0.770513244096 0.0 
-0.612907052096 -0.790155013584 0.0 
-0.587785250774 -0.809016995478 0.0 
-0.562083376379 -0.827080575275 0.0 
-0.535826793563 -0.844327926401 0.0 
-0.509041414373 -0.860742027818 0.0 
-0.481753672822 -0.876306680747 0.0 
-0.453990498452 -0.891006524844 0.0 
-0.425779290352 -0.904827053037 0.0 
-0.397147889472 -0.917754626187 0.0 
-0.368124551631 -0.929776486305 0.0 
-0.338737919221 -0.940880769323 0.0 
-0.309016993489 -0.951056516583 0.0 
-0.27899110516 -0.960293685932 0.0 
-0.248689886433 -0.968583161316 0.0 
-0.21814324071 -0.975916762092 0.0 
-0.187381314041 -0.982287250833 0.0 
-0.156434464564 -0.987688340671 0.0 
-0.125333233216 -0.992114701358 0.0 
-0.0941083130224 -0.995561964631 0.0 
-0.0627905193342 -0.998026728441 0.0 
-0.0314107589634 -0.999506560369 0.0 
0.0314107591483 -0.999506560364 0.0 
0.0627905196672 -0.99802672842 0.0 
0.0941083135167 -0.995561964584 0.0 
0.125333233833 -0.992114701281 0.0 
0.156434465394 -0.987688340539 0.0 
0.187381315029 -0.982287250644 0.0 
0.218143241922 -0.975916761821 0.0 
0.248689887765 -0.968583160975 0.0 
0.278991106726 -0.960293685477 0.0 
0.309016995142 -0.951056516046 0.0 
0.338737921091 -0.94088076865 0.0 
0.368124553616 -0.92977648552 0.0 
0.397147891645 -0.917754625247 0.0 
0.425779292646 -0.904827051957 0.0 
0.453990500871 -0.891006523612 0.0 
0.481753675279 -0.876306679397 0.0 
0.509041416996 -0.860742026267 0.0 
0.535826796303 -0.844327924662 0.0 
0.562083379231 -0.827080573337 0.0 
0.587785253711 -0.809016993345 0.0 
0.612907055183 -0.790155011189 0.0 
0.637423991314 -0.770513241481 0.0 
0.661311866897 -0.750111068243 0.0 
0.684547107546 -0.728968625903 0.0 
0.707106782815 -0.707106779558 0.0 
0.728968628964 -0.684547104286 0.0 
0.750111071057 -0.661311863705 0.0 
0.770513244096 -0.637423988153 0.0 
0.790155013584 -0.612907052096 0.0 
0.809016995478 -0.587785250774 0.0 
0.827080575275 -0.562083376379 0.0 
0.844327926401 -0.535826793563 0.0 
0.860742027818 -0.509041414373 0.0 
0.876306680747 -0.481753672822 0.0 
0.891006524844 -0.453990498452 0.0 
0.904827053037 -0.425779290352 0.0 
0.917754626187 -0.397147889472 0.0 
0.929776486305 -0.368124551631 0.0 
0.940880769323 -0.338737919221 0.0 
0.951056516583 -0.309016993489 0.0 
0.960293685932 -0.27899110516 0.0 
0.968583161316 -0.248689886433 0.0 
0.975916762092 -0.21814324071 0.0 
0.982287250833 -0.187381314041 0.0 
0.987688340671 -0.156434464564 0.0 
0.992114701358 -0.125333233216 0.0 
0.995561964631 -0.0941083130224 0.0 
0.998026728441 -0.0627905193342 0.0 
0.999506560369 -0.0314107589634 0.0 
0.49901336421 0.0313952598356 0.0 
0.49605735064 0.0626666169206 0.0 
0.491143625321 0.0936906575206 0.0 
0.484291580485 0.12434494389 0.0 
0.47552825802 0.154508497581 0.0 
0.464888242755 0.184062276819 0.0 
0.452413525974 0.212889646333 0.0 
0.438153339692 0.24087683765 0.0 
0.422163962323 0.267913398164 0.0 
0.404508496663 0.293892626869 0.0 
0.385256620733 0.318711995666 0.0 
0.364484312936 0.342273553789 0.0 
0.34227355212 0.364484314503 0.0 
0.318711994048 0.385256622071 0.0 
0.293892625357 0.404508497761 0.0 
0.267913396745 0.422163963223 0.0 
0.240876836371 0.438153340396 0.0 
0.212889645148 0.452413526531 0.0 
0.184062275785 0.464888243165 0.0 
0.154508496712 0.475528258302 0.0 
0.124344943205 0.484291580661 0.0 
0.0936906570067 0.491143625419 0.0 
0.0626666165922 0.496057350681 0.0 
0.0313952596691 0.49901336422 0.0 
-0.0313952598356 0.49901336421 0.0 
-0.0626666169206 0.49605735064 0.0 
-0.0936906575206 0.491143625321 0.0 
-0.12434494389 0.484291580485 0.0 
-0.154508497581 0.47552825802 0.0 
-0.184062276819 0.464888242755 0.0 
-0.212889646333 0.452413525974 0.0 
-0.24087683765 0.438153339692 0.0 
-0.267913398164 0.422163962323 0.0 
-0.293892626869 0.404508496663 0.0 
-0.318711995666 0.385256620733 0.0 
-0.342273553789 0.364484312936 0.0 
-0.364484314503 0.34227355212 0.0 
-0.385256622071 0.318711994048 0.0 
-0.404508497761 0.293892625357 0.0 
-0.422163963223 0.267913396745 0.0 
-0.438153340396 0.240876836371 0.0 
-0.452413526531 0.212889645148 0.0 
-0.464888243165 0.184062275785 0.0 
-0.475528258302 0.154508496712 0.0 
-0.484291580661 0.124344943205 0.0 
-0.491143625419 0.0936906570067 0.0 
-0.496057350681 0.0626666165922 0.0 
-0.49901336422 0.0313952596691 0.0 
-0.49901336421 -0.0313952598356 0.0 
-0.49605735064 -0.0626666169206 0.0 
-0.491143625321 -0.0936906575206 0.0 
-0.484291580485 -0.12434494389 0.0 
-0.47552825802 -0.154508497581 0.0 
-0.464888242755 -0.184062276819 0.0 
-0.452413525974 -0.212889646333 0.0 
-0.438153339692 -0.24087683765 0.0 
-0.422163962323 -0.267913398164 0.0 
-0.404508496663 -0.293892626869 0.0 
-0.385256620733 -0.318711995666 0.0 
-0.364484312936 -0.342273553789 0.0 
-0.34227355212 -0.364484314503 0.0 
-0.318711994048 -0.385256622071 0.0 
-0.293892625357 -0.404508497761 0.0 
-0.267913396745 -0.422163963223 0.0 
-0.240876836371 -0.438153340396 0.0 
-0.212889645148 -0.452413526531 0.0 
-0.184062275785 -0.464888243165 0.0 
-0.154508496712 -0.475528258302 0.0 
-0.124344943205 -0.484291580661 0.0 
-0.0936906570067 -0.491143625419 0.0 
-0.0626666165922 -0.496057350681 0.0 
-0.0313952596691 -0.49901336422 0.0 
[...]
<PointData Scalars="solution">
<DataArray type="Float64" Name="Real part" format="ascii">
0.883612251998
0.892980804829
0.147805417406
0.893176285143
0.0
0.0
0.0
0.0
0.87971163053
0.868115185813
0.847958151223
0.819923626831
0.783419194439
0.74197694867
0.69677224318
0.636510967986
0.58299688686
0.528353674009
0.478237989906
0.439938723547
0.435186994895
0.463070167877
0.515027067824
0.61342241459
0.718727259516
0.838641105242
0.963288820139
1.08273945239
1.20793113307
1.30328242333
1.39045809482
1.46365500449
1.51290690667
1.53613578159
1.51859092472
1.47507821135
1.40688374412
1.29058005555
1.15598510754
0.990631663068
0.816180419694
0.65724576478
0.532210485561
0.504475074148
0.597201996581
0.748713928377
0.922688817804
1.09077195086
1.23494425689
1.35522691518
1.41578707677
1.44892200078
1.43576022569
1.3842467534
1.30293028905
1.18569298672
1.0471893791
0.74552647586
0.635045350884
0.58394170913
0.62405734015
0.720183089186
0.839817545502
0.960676996398
1.07982501
1.18386064416
1.27455021641
1.337412611
1.37841829661
1.39528890168
1.38041334394
1.36384308604
1.32456547804
1.29205279598
1.23994164973
1.17610190293
1.09983365494
1.02057738341
0.937283954939
0.862730567365
0.801250713407
0.749226776738
0.695320842749
0.642516586206
0.583465749977
0.503050031664
0.45204598625
0.3943887517
0.372041218246
0.368179144152
0.366839887119
0.334909592258
0.308256713966
0.291449515398
0.258825032127
0.22930084781
0.214462408141
0.207684630011
0.211352812803
0.207210069683
0.2061455701
0.197664353627
0.185751980627
0.172239833281
0.159555210844
0.154675005122
0.150182900732
0.156741342212
0.180762328935
0.189715946762
0.204774455
0.210608630303
0.209293617035
0.210286539842
0.209562909074
0.218266684362
0.228535946208
0.253230370891
0.299708966677
0.319240128098
0.323668344674
0.367208238297
0.362623771298
0.371645079383
0.404894741413
0.451485433927
0.505525271307
0.5873275511
0.642903104667
0.695119464468
0.743084923309
0.797727620967
0.859857480678
0.935834038169
1.02095902132
1.10577479646
1.18513192137
1.24696400124
1.2866206815
1.32866400604
1.35083812372
1.379215205
1.38599439239
1.38131301957
1.34293130051
1.27718351623
1.19023433692
1.0743952476
0.958587752456
0.840063433705
0.725985406587
0.627105140158
0.588580497755
0.626826799026
0.742477821273
1.04551807577
1.18274991273
1.30215920542
1.38012640713
1.43238814884
1.4450660841
1.41749020397
1.35825281619
1.23978266677
1.09005925545
0.922906206015
0.748634687917
0.603202181034
0.51403072648
0.525683987567
0.665071717709
0.822252474201
0.9957225334
1.15472544309
1.29314646626
1.40887580314
1.46759724445
1.51342070118
1.52985737261
1.51527905461
1.46643238084
1.39389393204
1.31370340368
1.20672760773
1.08512817406
0.964734350237
0.837886245088
0.717399242407
0.604065133434
0.513241393452
0.449428317989
0.437970520983
0.446512577685
0.484750969272
0.535723545554
0.587106866543
0.644173676809
0.699756155189
0.745619147202
0.786794472156
0.821302571312
0.848845014007
0.868188618616
0.879370600461
0.0
0.0
0.0
0.0
0.0
0.0
0.0
0.0
0.0
1.32414750741e-15
0.0
0.0
0.0
0.0
0.0
0.0
0.0
0.0
9.93013661299e-16
0.0
0.0
1.24126707662e-16
0.0
0.0
0.0
0.0
0.0
0.0
0.0
0.0
0.0
0.0
0.0
8.25232590447e-16
0.0
0.0
0.0
0.0
0.0
0.0
0.0
0.0
1.66556581734e-15
0.0
0.0
1.45286586409e-15
0.0
0.0
0.0
0.0
0.0
0.0
0.0
0.0
0.0
0.0
0.0
1.04480481071e-15
0.0
0.0
0.0
0.0
0.0
0.0
0.0
0.0
2.15566318562e-15
0.0
0.0
8.00593208497e-16
0.0
0.0
0.0
0.0
0.0
0.0
0.0
0.0
0.0
0.0
0.0
1.57009245868e-16
0.0
0.0
0.0
0.0
0.0
0.0
0.0
0.0
2.19812944216e-15
0.0
0.0
1.29948273372e-15
0.0
0.0
0.108855390486
1.12880289755
1.14925767074
1.70863152746
0.230054136418
0.877113479133
0.445164271908
1.56689458971
1.65569266774
1.48364840714
0.106955214977
1.5085002202
1.66787349914
0.21788413636
0.466796791167
0.738036297598
1.40781153156
0.362396133184
1.60062089594
0.578373036191
1.0539446154
0.49991462536
1.27323401822
0.241973403466
1.42443270859
0.13086071606
0.534848991387
0.890235823986
0.381430467585
1.40486361087
0.115012370961
0.534984583517
0.493912100818
0.4741633819
0.0836519923083
1.60921263776
1.14177826376
0.229614762085
1.44396319459
0.116826688667
0.3763892259
0.778995212811
0.069356039507
1.6272191313
0.170154834116
1.23224871167
0.224768543039
0.954948935206
0.945815676255
0.462657334859
0.57935285402
0.552360212069
0.229750221257
1.53796425986
0.603376903254
1.01956264339
1.38976474847
0.372431789564
0.0769640636406
1.71676282081
1.19694239017
0.112872002652
1.44256779336
1.13987786001
1.09005309895
1.48903480851
0.109445255389
0.686237318362
0.611345693109
1.31792347705
1.48609294244
0.109099875925
1.04161603133
0.909665317778
0.137452642252
1.24581321621
0.245887019335
1.58497332602
1.73949945888
0.113312186022
0.929464182294
0.690121867806
0.23597615458
1.32554395852
1.33522797058
1.25260211484
0.189718046488
1.52577801997
1.42161406168
1.61380537784
0.16834836849
0.86157917876
1.38149208421
1.59370648756
0.157881347102
0.657494899249
1.15996255216
0.438899406041
0.137497977423
0.3348916803
0.32490201287
1.18366572462
0.331013421798
1.14524884628
0.863617267564
1.71045325185
0.180720125222
0.645441385346
1.37619983883
1.71595502134
0.119055383653
1.47144550745
0.12333153695
1.34464794877
1.72377093144
1.2583757416
0.618623541423
0.668832652531
0.469073986841
0.414624977597
0.370454663956
1.83406324732
0.144295628327
1.37494910874
1.70587041219
1.02262343615
0.13210893176
0.83314335407
0.660648567194
1.67979972845
0.362701042321
0.216939094475
1.54471282296
0.0966859965359
1.56760065394
1.69714516615
1.35173979519
1.58923982258
0.240535871364
1.51813102826
0.500085790848
0.119316623886
0.842057901623
1.5911341812
0.300716970644
0.695702988197
1.1554010595
0.868353290816
1.47658331838
1.61393297395
0.177134036226
1.48420664585
0.190821510039
1.80057778787
0.119673365343
1.60698146129
1.2992202617
0.327485082793
1.86694983647
0.132162678757
1.8720761599
0.535205881036
0.933536678085
0.0739552514989
1.88280096068
0.461523057495
0.0674935051402
1.01670078771
0.352153103883
0.632258546357
0.0774542575681
1.55694409347
1.18691990621
1.53677109762
1.23506992457
0.279733916865
0.16408595009
1.74184393013
1.74927874978
0.149257343535
0.170230835331
0.747390882828
1.870053338
0.704534224615
0.247760937209
1.84639493411
0.0862210663025
1.51063709708
0.584723041081
0.117655636929
1.43673086471
0.361567857482
0.345049891406
1.46397907084
0.128523221764
0.764104690878
0.785539815557
1.25432829985
0.379093619683
0.42163265217
1.59916603933
1.25710016053
0.283179883151
1.24856805017
0.876790166726
1.41234871523
0.13043197401
1.45045509867
0.0791308437101
1.13590525711
0.424175214648
0.2935566983
1.09244520018
1.41080121449
0.17694571116
0.842304699147
0.238287789674
0.337115940876
0.177701875039
0.659442109984
0.742180706242
1.51111719289
0.25578422726
1.07147390511
0.332668345896
0.65342769573
1.15793176702
1.58760330683
0.734447492544
0.502989749267
0.0428896313735
1.58249544414
0.688198892039
0.0143358379292
1.0310640779
1.62161416235
0.0319009850411
1.61136433464
1.08433816034
0.710095685862
0.241490816747
1.22752218587
1.04860617622
0.585168404767
0.198704361555
1.43112534557
1.48373313781
1.44855568859
1.427683433
0.162818321496
0.717856000222
1.01727986918
0.452620428681
0.168253892228
1.17736021101
1.04031594132
1.43976410414
1.3845434512
0.213999142251
1.38113152597
1.31193797182
0.141687428704
1.43140267502
0.537638014269
0.463065333079
1.57181243988
1.56571438404
0.465802027714
0.434687193526
1.25193888039
0.175616031838
0.77249592087
0.883854825606
0.876204471954
1.44991433486
0.253891405148
0.868395816473
0.605465576797
1.04514609035
0.555869886153
0.0826342958438
1.38345628633
0.71285389601
0.317395660734
0.65176953414
0.51380780939
0.121906327446
1.08993819411
0.291522165468
0.683867401731
1.56924860791
1.09068702779
0.274792117635
1.54378230008
0.800790385794
0.54772972038
0.221021666271
1.4579370287
1.46828212297
1.50413937886
1.17203853419
0.128406620585
0.523547881204
0.575942175851
0.215725486264
1.77821402105
0.0835679629283
1.25256943071
0.714831163536
0.306235037793
0.197554603729
0.315124827037
1.16005753338
0.124379450061
1.0001882368
1.02741563189
1.26959893172
0.567775034955
1.25407511928
0.181700440038
0.320324741198
1.75137952314
0.851877760728
0.0841395653591
1.78073570516
0.438231313652
0.104210888218
0.612434226987
0.355231927418
1.53610364185
0.457304782117
1.64611633029
0.138212103307
1.52412812601
1.29156005012
0.0816444605841
1.43671712615
1.46415818439
0.23869350643
1.43595453227
1.08771103696
1.59120256515
0.55748168982
0.297472456236
1.47119597369
1.04253077326
0.100740282883
0.762189861997
1.20124009849
0.128180810006
1.36789280105
0.567449063878
0.581272571927
1.63866206235
0.252830475009
1.26618686065
0.447516307116
0.710397534941
0.783564122276
1.4646496691
1.44508136212
0.903494795691
0.121736020436
0.527204521778
1.00068279831
1.47104003129
0.12151888945
0.546923483065
1.71834025458
0.283624805986
0.0949703236649
0.84720277473
0.170272722344
0.190037767129
1.51541053996
1.56916858351
1.16524344524
1.08375034994
0.21633142305
1.26561376413
0.167602425482
0.847931669515
0.656856279388
1.36337107924
1.64079953684
0.074843101864
1.58953804772
1.42126411443
0.073698246167
1.44740507127
1.03474235421
1.51380095813
0.38412339228
0.696201391449
0.368863888429
1.11497461596
0.948615883706
1.00617927061
1.5972269522
0.0360386303639
0.916171323699
1.04975357758
0.21407432706
1.20508630851
1.58257319327
1.30916960251
0.0844972098505
1.11738417381
0.239296533818
1.03564234612
0.63304870926
1.66077348505
0.219547693764
0.442843844582
1.42025101748
0.993807941307
0.842008859671
1.58243487693
0.506434254347
0.252612666773
1.50112387728
1.39359359465
0.126611628025
1.32207765524
1.2415605255
1.38686098506
0.139079891818
0.776282853845
0.984197126901
0.324845688409
1.30612552377
1.4671227251
0.116986728604
0.477715436612
1.33831890344
0.688327586346
0.07107262994
1.70373077153
0.368267304526
1.23510182687
0.921322155277
1.15269078231
0.187963693808
1.07442378093
1.27014926712
0.442132761371
0.124733311035
1.67380952032
1.48560372198
0.13997687125
1.10148022257
1.49828512393
1.07037632761
0.59367496939
1.57415336792
0.22493571678
0.159018255197
1.46580640751
0.0643128205417
1.08642784139
1.33042712862
0.104717204306
0.103176641659
1.20445921141
0.298219274716
1.13160545027
1.36180812817
1.4059800044
1.62870111474
0.536433883316
0.120022173471
1.38256782047
0.707610588705
0.838280083252
0.160691529332
0.833509351215
0.122699041082
1.19106585768
0.490602338589
1.60385716593
1.12374930401
0.138216413914
1.47616924151
0.556904167384
0.0908823873944
1.55219127265
0.470903100085
0.336687297943
0.538780116806
1.17738125751
1.61320327055
0.122115704362
0.776646354342
1.07656862561
0.0547838438503
1.38235784408
0.0657829458347
1.34903445018
0.788186084229
1.11473606539
1.05018649003
1.07781827578
0.639025423236
0.222447528157
0.165682904235
1.42666257128
0.0762221876554
0.881091198317
1.42965586044
1.04739582704
0.113544462359
1.14339508216
1.58723220348
0.420538851324
0.334433421194
1.29863784382
0.0883243406747
0.942125196578
1.62989822428
1.1569479629
1.64959714105
1.19066960588
1.5010469179
0.0900552608115
0.0893396557372
1.56181514892
1.68469015007
1.31888546126
0.229537943778
0.35332713569
0.236138739821
0.314609790665
0.534668383635
0.76587002227
0.514056294712
0.830753148912
0.328355725526
0.328703208191
0.791276346056
0.10230340967
0.121204780812
1.03404355497
0.798322610427
1.52188471588
0.218802281012
1.57181280572
1.1461853445
0.844075406351
0.0843787942993
1.57155782458
1.53475593776
1.72813010904
0.520991005758
0.734048857931
1.46877796421
0.98699868985
0.13923150153
1.00988333226
1.45394041949
0.760400848851
0.806174540978
1.40137683691
0.134160494908
0.759566839661
0.361513464585
0.530940978683
0.971404241437
1.57346465393
1.13114741924
0.357321444085
0.701776195323
0.381067475395
0.684371651445
1.40823759332
0.57426742299
1.14603446411
0.251429915549
0.727547712881
0.323864883392
1.11638007948
1.21157269704
1.12520544969
1.56675021317
0.227066996279
0.175096456193
1.77142734277
0.182230385062
1.78705994831
1.43426056539
1.29110891515
0.139351384013
0.499717615162
1.57704110374
0.599126680695
0.202254521115
0.34416078222
1.50940725775
0.151083996837
1.07443140222
0.812916657303
0.109714561537
1.6358899115
0.360764628734
1.66649272018
0.150503304809
0.359081940144
0.483367375713
1.23476768631
1.07262068039
1.38134120021
0.226000261816
1.50079507181
1.44931135275
0.17859257245
0.0886464300641
0.79300693488
0.356291612575
0.533202588997
1.56517703316
1.01092710867
1.22037072463
0.334897868684
0.614755539011
1.48204310693
0.111978850798
1.6441686818
0.861728344357
0.594025623811
0.908058252504
1.25215891116
0.226373472396
1.45477888632
0.280913190838
1.40134769136
1.28215508744
1.22228686183
0.619452529989
0.543228558445
0.140615237115
0.745530857513
0.807059761875
0.721471828196
0.0179209958663
1.57273776153
1.04659671124
0.643261447994
0.135098234495
1.15203366834
0.737291828626
0.188865221916
1.4408605781
0.0857718545035
0.26722752988
1.49664748554
0.554967787924
0.0305088571903
1.5069908459
0.28282044852
0.0303330674848
0.536437231893
0.443777033831
1.30632747983
0.580714929247
0.920298434512
1.09945976848
1.43033834536
0.235316816258
1.41956839473
0.0892413718897
1.73325531836
0.294909541918
1.62748141385
0.249306986299
1.19055704093
0.984714434143
0.969355619584
1.4215948676
1.50363423956
1.52036278782
0.172755898086
0.0994779170224
1.63453152787
0.742887952803
0.714061474409
0.262132894159
1.58686233353
0.804811713969
0.777275501289
1.46921945031
0.226365661278
1.40908710924
1.0167711861
0.673036931848
0.155548847079
0.816109533976
0.61485185963
1.19342182605
0.207595303102
1.18411130748
0.356675623433
0.0862288655762
1.19224971885
1.10307157054
0.0773930242956
0.0874546324149
0.654988879062
0.789407409602
1.37757408879
0.0541143135326
1.12695708144
1.60276385317
1.21983010613
1.02787645684
0.987860643874
0.0448193376679
1.62769346224
1.46175349802
0.38563773417
0.355089922808
0.0998301815834
0.247101276191
1.42931649656
0.949121309153
0.663708741281
0.131867315512
1.27034703866
0.931681178934
0.056750377241
0.527934913558
0.330609253637
1.19450255401
1.49437381916
1.43650074836
1.54112228775
0.170458540306
1.51364598613
1.48382861954
0.833614532836
0.257760007023
0.76884641306
1.14137172154
1.4286363359
0.257058353887
1.25467583935
1.45381562819
0.154267506768
0.876788911893
1.55030509737
1.58662720235
0.46939942826
0.241004701313
0.96911301899
1.61240825535
1.35036685624
0.659381066295
0.149363762253
0.440771264157
0.443131107072
0.659371071221
0.781438432319
0.145317674244
1.69305122793
0.248648292359
1.53150297777
0.403008239147
1.55925694195
0.561076011928
1.26538558329
1.04291106087
0.12842779886
1.31614508791
1.43904005964
0.127485593829
1.30531298056
1.38922785307
1.4453527515
0.169847366619
1.81991933908
1.75059735098
0.136140960411
0.237933120753
1.31955980681
1.06600332772
1.14606198532
1.3522188136
1.49673696596
0.852942287144
0.115574004222
0.0905765762172
1.3396348781
0.502403966676
0.327617486946
0.104287489542
1.56706704004
0.504282460295
0.363295578509
0.734845547392
0.972573562159
0.0488718386293
1.50082051713
0.410085629603
1.84665024456
1.26160863302
0.135425629526
1.83880385071
0.504708755822
0.0696894204466
1.1101616646
0.0845266846869
1.03702663507
1.78459006775
0.608353530834
0.316374923024
0.273631227828
0.124918176643
0.887510533518
0.668983634607
0.132638610249
0.950112272092
1.35615108219
0.167780702718
1.80326128564
0.852470944414
0.731093296481
0.228166560291
1.84153907782
0.0924661460708
1.64425839003
1.48910522578
1.47933985295
1.60410312728
0.175737527065
1.53095280949
0.126595789919
0.514021554983
0.872005011789
0.91066523851
1.14554426928
0.744036791444
0.198638139773
0.858815160474
0.245741041869
1.53953774769
0.783752204905
0.945059798546
1.19250309144
0.200823521661
0.737174674365
0.760842547624
1.17372208302
0.226185055716
1.42661677247
0.264210173616
1.8401685103
0.0794146909008
1.54385379412
0.935794916143
0.824621948429
1.43783041053
0.256445849436
1.11551089699
1.19908811277
0.155789824655
0.453657656204
1.42780205146
0.0845471576898
0.302416640235
0.800074363201
0.299385612894
0.894414347724
1.30454192473
0.58781921274
1.37914546545
0.690174428654
0.108537222518
0.374128187846
0.24823575712
1.33565323115
0.166967024307
1.20776672965
0.987513636781
0.846135685742
1.57294518181
0.46609895536
0.521119089236
0.117504212702
0.967214119931
1.4637089336
1.44903942011
1.02388683251
0.127924677747
0.494512106964
1.60543226821
1.33006059034
0.262243138002
1.40566315402
0.584388105216
0.412369756054
0.0671462228412
1.48920245743
0.0967998114082
1.11633860104
0.0736746447493
0.906947849185
1.46959969231
1.61910765911
1.18439162342
0.165051607848
1.21227197034
0.154318442283
0.550074592186
1.64354045125
0.213021033384
1.17415407307
1.4453679447
0.150029218557
0.19292426967
1.19111979197
0.0341746994461
0.456510060641
0.0995352387058
0.217612198289
1.46442199349
1.07746973253
0.496792966962
1.65647062259
1.36365873295
0.304563517822
1.64422831324
0.743305830891
0.314119651264
0.0767198761269
1.30319851126
1.30476051349
0.327419790542
0.701086825413
0.0952333741922
1.66939953067
0.543848762536
0.756351374372
1.4655192569
0.450631815927
0.0620475008433
0.946521700953
0.822021652172
0.380951729729
0.0518238789819
1.59873376104
0.137395055503
0.710013584008
1.08062897099
1.63101360194
1.56179423219
0.421838030216
0.841143846239
0.92218964755
0.418280502934
1.59535753648
0.397986738014
1.56794549798
0.0942981840924
0.883759494694
0.4234434519
0.524905561697
1.35001291008
0.858648329376
0.161323899627
1.26921688608
1.49656092178
1.53452758255
0.132387819838
1.4432343181
0.129520577851
0.82666916251
1.09118155699
1.19328177438
1.68268090698
0.223553789199
0.792504790704
0.610797638207
1.32463643377
0.221391774718
0.811244256771
1.50132706787
0.159310587548
0.502459414447
0.539097377247
1.26544819709
0.96701063796
0.392507516063
0.23256127155
1.56220303523
0.0816030658733
1.67691095433
1.56523411699
1.54042068284
0.124645090138
1.49743017316
1.82950767062
0.328686800021
0.796888135911
0.370953311541
0.274715358525
1.41308882519
1.51903648819
0.535274584663
1.10207013415
0.761942972368
1.21934054158
0.785125712608
0.204823080415
1.51295280144
1.3230635126
0.205449043708
1.159730213
1.49407895763
0.399921557953
1.60015184938
1.59176274327
0.497491181144
1.15097787814
1.47787834879
1.45585600175
0.123477510824
0.124247000508
1.59030251488
0.50270625059
1.1782011305
0.116421699562
1.5255402335
0.658551562136
1.09686379141
0.404541910065
0.50731708879
0.564821816734
0.446725475478
0.49184170004
1.021324219
1.55465943195
0.179898480688
0.4577136721
0.525930399938
1.26115293175
1.42605436772
0.751830900139
0.226410834082
1.48543026489
1.2631885486
1.37814496673
1.16735982383
1.38408378023
0.13767650183
1.38950485376
1.3967742763
0.140394389846
1.17131284326
0.70368357987
0.90286811265
0.397031843718
0.463264270734
1.41520182076
0.640444980861
0.682941000641
1.48452946981
0.912218635735
0.224563278577
0.0100701193184
1.59783252538
0.106793762224
1.09754616664
0.0451224465039
0.715934287132
0.307367924558
1.42462920948
1.7151107667
0.0872190942685
0.94466523778
1.3374874685
0.248720358305
0.66441160375
1.47796653189
1.48411542681
0.134469701996
1.08823359578
1.14181828061
0.354893110953
0.60244086637
1.39810174342
0.32542669439
1.54937889885
0.855644232403
0.691093025289
0.476206017704
0.285622813014
1.21667682886
0.805875689239
0.591020132147
0.336806785325
1.27711182957
1.2940923623
0.0773417340632
1.2123520454
1.53129670121
0.888458433536
1.35448518453
0.137087114749
0.636019748524
1.08421117337
1.37962271834
0.548270204872
1.21454771349
0.126058425947
0.197004596732
1.43796966653
1.59100419122
1.46690278621
0.531519168775
0.535726019512
0.632002665444
0.565573267192
0.96307432093
0.685448134794
1.39564632756
0.234445319295
1.45512618491
0.0971414490636
1.19243898045
0.747472211576
0.124368890581
1.58804314529
0.413838541396
1.59040827469
0.207455247473
1.47749282991