<VTKFile type="UnstructuredGrid" version="1.0" byte_order="LittleEndian" header_type="UInt64">
<UnstructuredGrid>
<Piece NumberOfPoints="3324" NumberOfCells= "6348">
<Points>
<DataArray NumberOfComponents="3" type="Float64">
1.0 0.0 0.0 
0.0 1.0 0.0 
-1.0 0.0 0.0 
0.0 -1.0 0.0 
0.5 0.0 0.0 
0.0 0.5 0.0 
-0.5 0.0 0.0 
0.0 -0.5 0.0 
0.999506560364 0.0314107591483 0.0 
0.99802672842 0.0627905196672 0.0 
0.995561964584 0.0941083135167 0.0 
0.992114701281 0.125333233833 0.0 
0.987688340539 0.156434465394 0.0 
0.982287250644 0.187381315029 0.0 
0.975916761821 0.218143241922 0.0 
0.968583160975 0.248689887765 0.0 
0.960293685477 0.278991106726 0.0 
0.951056516046 0.309016995142 0.0 
0.94088076865 0.338737921091 0.0 
0.92977648552 0.368124553616 0.0 
0.917754625247 0.397147891645 0.0 
0.904827051957 0.425779292646 0.0 
0.891006523612 0.453990500871 0.0 
0.876306679397 0.481753675279 0.0 
0.860742026267 0.509041416996 0.0 
0.844327924662 0.535826796303 0.0 
0.827080573337 0.562083379231 0.0 
0.809016993345 0.587785253711 0.0 
0.790155011189 0.612907055183 0.0 
0.770513241481 0.637423991314 0.0 
0.750111068243 0.661311866897 0.0 
0.728968625903 0.684547107546 0.0 
0.707106779558 0.707106782815 0.0 
0.684547104286 0.728968628964 0.0 
0.661311863705 0.750111071057 0.0 
0.637423988153 0.770513244096 0.0 
0.612907052096 0.790155013584 0.0 
0.587785250774 0.809016995478 0.0 
0.562083376379 0.827080575275 0.0 
0.535826793563 0.844327926401 0.0 
0.509041414373 0.860742027818 0.0 
0.481753672822 0.876306680747 0.0 
0.453990498452 0.891006524844 0.0 
0.425779290352 0.904827053037 0.0 
0.397147889472 0.917754626187 0.0 
0.368124551631 0.929776486305 0.0 
0.338737919221 0.940880769323 0.0 
0.309016993489 0.951056516583 0.0 
0.27899110516 0.960293685932 0.0 
0.248689886433 0.968583161316 0.0 
0.21814324071 0.975916762092 0.0 
0.187381314041 0.982287250833 0.0 
0.156434464564 0.987688340671 0.0 
0.125333233216 0.992114701358 0.0 
0.0941083130224 0.995561964631 0.0 
0.0627905193342 0.998026728441 0.0 
0.0314107589634 0.999506560369 0.0 
-0.0314107591483 0.999506560364 0.0 
-0.0627905196672 0.99802672842 0.0 
-0.0941083135167 0.995561964584 0.0 
-0.125333233833 0.992114701281 0.0 
-0.156434465394 0.987688340539 0.0 
-0.187381315029 0.982287250644 0.0 
-0.218143241922 0.975916761821 0.0 
-0.248689887765 0.968583160975 0.0 
-0.278991106726 0.960293685477 0.0 
-0.309016995142 0.951056516046 0.0 
-0.338737921091 0.94088076865 0.0 
-0.368124553616 0.92977648552 0.0 
-0.397147891645 0.917754625247 0.0 
-0.425779292646 0.904827051957 0.0 
-0.453990500871 0.891006523612 0.0 
-0.481753675279 0.876306679397 0.0 
-0.509041416996 0.860742026267 0.0 
-0.535826796303 0.844327924662 0.0 
-0.562083379231 0.827080573337 0.0 
-0.587785253711 0.809016993345 0.0 
-0.612907055183 0.790155011189 0.0 
-0.637423991314 0.770513241481 0.0 
-0.661311866897 0.750111068243 0.0 
-0.684547107546 0.728968625903 0.0 
-0.707106782815 0.707106779558 0.0 
-0.728968628964 0.684547104286 0.0 
-0.750111071057 0.661311863705 0.0 
-0.770513244096 0.637423988153 0.0 
-0.790155013584 0.612907052096 0.0 
-0.809016995478 0.587785250774 0.0 
-0.827080575275 0.562083376379 0.0 
-0.844327926401 0.535826793563 0.0 
-0.860742027818 0.509041414373 0.0 
-0.876306680747 0.481753672822 0.0 
-0.891006524844 0.453990498452 0.0 
-0.904827053037 0.425779290352 0.0 
-0.917754626187 0.397147889472 0.0 
-0.929776486305 0.368124551631 0.0 
-0.940880769323 0.338737919221 0.0 
-0.951056516583 0.309016993489 0.0 
-0.960293685932 0.27899110516 0.0 
-0.968583161316 0.248689886433 0.0 
-0.975916762092 0.21814324071 0.0 
-0.982287250833 0.187381314041 0.0 
-0.987688340671 0.156434464564 0.0 
-0.992114701358 0.125333233216 0.0 
-0.995561964631 0.0941083130224 0.0 
-0.998026728441 0.0627905193342 0.0 
-0.999506560369 0.0314107589634 0.0 
-0.999506560364 -0.0314107591483 0.0 
-0.99802672842 -0.0627905196672 0.0 
-0.995561964584 -0.0941083135167 0.0 
-0.992114701281 -0.125333233833 0.0 
-0.987688340539 -0.156434465394 0.0 
-0.982287250644 -0.187381315029 0.0 
-0.975916761821 -0.218143241922 0.0 
-0.968583160975 -0.248689887765 0.0 
-0.960293685477 -0.278991106726 0.0 
-0.951056516046 -0.309016995142 0.0 
-0.94088076865 -0.338737921091 0.0 
-0.92977648552 -0.368124553616 0.0 
-0.917754625247 -0.397147891645 0.0 
-0.904827051957 -0.425779292646 0.0 
-0.891006523612 -0.453990500871 0.0 
-0.876306679397 -0.481753675279 0.0 
-0.860742026267 -0.509041416996 0.0 
-0.844327924662 -0.535826796303 0.0 
-0.827080573337 -0.562083379231 0.0 
-0.809016993345 -0.587785253711 0.0 
-0.790155011189 -0.612907055183 0.0 
-0.770513241481 -0.637423991314 0.0 
-0.750111068243 -0.661311866897 0.0 
-0.728968625903 -0.684547107546 0.0 
-0.707106779558 -0.707106782815 0.0 
-0.684547104286 -0.728968628964 0.0 
-0.661311863705 -0.750111071057 0.0 
-0.637423988153 -0.770513244096 0.0 
-0.612907052096 -0.790155013584 0.0 
-0.587785250774 -0.809016995478 0.0 
-0.562083376379 -0.827080575275 0.0 
-0.535826793563 -0.844327926401 0.0 
-0.509041414373 -0.860742027818 0.0 
-0.481753672822 -0.876306680747 0.0 
-0.453990498452 -0.891006524844 0.0 
-0.425779290352 -0.904827053037 0.0 
-0.397147889472 -0.917754626187 0.0 
-0.368124551631 -0.929776486305 0.0 
-0.338737919221 -0.940880769323 0.0 
-0.309016993489 -0.951056516583 0.0 
-0.27899110516 -0.960293685932 0.0 
-0.248689886433 -0.968583161316 0.0 
-0.21814324071 -0.975916762092 0.0 
-0.187381314041 -0.982287250833 0.0 
-0.156434464564 -0.987688340671 0.0 
-0.125333233216 -0.992114701358 0.0 
-0.0941083130224 -0.995561964631 0.0 
-0.0627905193342 -0.998026728441 0.0 
-0.0314107589634 -0.999506560369 0.0 
0.0314107591483 -0.999506560364 0.0 
0.0627905196672 -0.99802672842 0.0 
0.0941083135167 -0.995561964584 0.0 
0.125333233833 -0.992114701281 0.0 
0.156434465394 -0.987688340539 0.0 
0.187381315029 -0.982287250644 0.0 
0.218143241922 -0.975916761821 0.0 
0.248689887765 -0.968583160975 0.0 
0.278991106726 -0.960293685477 0.0 
0.309016995142 -0.951056516046 0.0 
0.338737921091 -0.94088076865 0.0 
0.368124553616 -0.92977648552 0.0 
0.397147891645 -0.917754625247 0.0 
0.425779292646 -0.904827051957 0.0 
0.453990500871 -0.891006523612 0.0 
0.481753675279 -0.876306679397 0.0 
0.509041416996 -0.860742026267 0.0 
0.535826796303 -0.844327924662 0.0 
0.562083379231 -0.827080573337 0.0 
0.587785253711 -0.809016993345 0.0 
0.612907055183 -0.790155011189 0.0 
0.637423991314 -0.770513241481 0.0 
0.661311866897 -0.750111068243 0.0 
0.684547107546 -0.728968625903 0.0 
0.707106782815 -0.707106779558 0.0 
0.728968628964 -0.684547104286 0.0 
0.750111071057 -0.661311863705 0.0 
0.770513244096 -0.637423988153 0.0 
0.790155013584 -0.612907052096 0.0 
0.809016995478 -0.587785250774 0.0 
0.827080575275 -0.562083376379 0.0 
0.844327926401 -0.535826793563 0.0 
0.860742027818 -0.509041414373 0.0 
0.876306680747 -0.481753672822 0.0 
0.891006524844 -0.453990498452 0.0 
0.904827053037 -0.425779290352 0.0 
0.917754626187 -0.397147889472 0.0 
0.929776486305 -0.368124551631 0.0 
0.940880769323 -0.338737919221 0.0 
0.951056516583 -0.309016993489 0.0 
0.960293685932 -0.27899110516 0.0 
0.968583161316 -0.248689886433 0.0 
0.975916762092 -0.21814324071 0.0 
0.982287250833 -0.187381314041 0.0 
0.987688340671 -0.156434464564 0.0 
0.992114701358 -0.125333233216 0.0 
0.995561964631 -0.0941083130224 0.0 
0.998026728441 -0.0627905193342 0.0 
0.999506560369 -0.0314107589634 0.0 
0.49901336421 0.0313952598356 0.0 
0.49605735064 0.0626666169206 0.0 
0.491143625321 0.0936906575206 0.0 
0.484291580485 0.12434494389 0.0 
0.47552825802 0.154508497581 0.0 
0.464888242755 0.184062276819 0.0 
0.452413525974 0.212889646333 0.0 
0.438153339692 0.24087683765 0.0 
0.422163962323 0.267913398164 0.0 
0.404508496663 0.293892626869 0.0 
0.385256620733 0.318711995666 0.0 
0.364484312936 0.342273553789 0.0 
0.34227355212 0.364484314503 0.0 
0.318711994048 0.385256622071 0.0 
0.293892625357 0.404508497761 0.0 
0.267913396745 0.422163963223 0.0 
0.240876836371 0.438153340396 0.0 
0.212889645148 0.452413526531 0.0 
0.184062275785 0.464888243165 0.0 
0.154508496712 0.475528258302 0.0 
0.124344943205 0.484291580661 0.0 
0.0936906570067 0.491143625419 0.0 
0.0626666165922 0.496057350681 0.0 
0.0313952596691 0.49901336422 0.0 
-0.0313952598356 0.49901336421 0.0 
-0.0626666169206 0.49605735064 0.0 
-0.0936906575206 0.491143625321 0.0 
-0.12434494389 0.484291580485 0.0 
-0.154508497581 0.47552825802 0.0 
-0.184062276819 0.464888242755 0.0 
-0.212889646333 0.452413525974 0.0 
-0.24087683765 0.438153339692 0.0 
-0.267913398164 0.422163962323 0.0 
-0.293892626869 0.404508496663 0.0 
-0.318711995666 0.385256620733 0.0 
-0.342273553789 0.364484312936 0.0 
-0.364484314503 0.34227355212 0.0 
-0.385256622071 0.318711994048 0.0 
-0.404508497761 0.293892625357 0.0 
-0.422163963223 0.267913396745 0.0 
-0.438153340396 0.240876836371 0.0 
-0.452413526531 0.212889645148 0.0 
-0.464888243165 0.184062275785 0.0 
-0.475528258302 0.154508496712 0.0 
-0.484291580661 0.124344943205 0.0 
-0.491143625419 0.0936906570067 0.0 
-0.496057350681 0.0626666165922 0.0 
-0.49901336422 0.0313952596691 0.0 
-0.49901336421 -0.0313952598356 0.0 
-0.49605735064 -0.0626666169206 0.0 
-0.491143625321 -0.0936906575206 0.0 
-0.484291580485 -0.12434494389 0.0 
-0.47552825802 -0.154508497581 0.0 
-0.464888242755 -0.184062276819 0.0 
-0.452413525974 -0.212889646333 0.0 
-0.438153339692 -0.24087683765 0.0 
-0.422163962323 -0.267913398164 0.0 
-0.404508496663 -0.293892626869 0.0 
-0.385256620733 -0.318711995666 0.0 
-0.364484312936 -0.342273553789 0.0 
-0.34227355212 -0.364484314503 0.0 
-0.318711994048 -0.385256622071 0.0 
-0.293892625357 -0.404508497761 0.0 
-0.267913396745 -0.422163963223 0.0 
-0.240876836371 -0.438153340396 0.0 
-0.212889645148 -0.452413526531 0.0 
-0.184062275785 -0.464888243165 0.0 
-0.154508496712 -0.475528258302 0.0 
-0.124344943205 -0.484291580661 0.0 
-0.0936906570067 -0.491143625419 0.0 
-0.0626666165922 -0.496057350681 0.0 
-0.0313952596691 -0.49901336422 0.0 
[...]
<PointData Scalars="solution">
<DataArray type="Float64" Name="Real part" format="ascii">
2.17917945687
2.16500249134
1.64254448952
0.609828531134
0.0
0.0
0.0
0.0
2.81805204538
3.22984967488
3.38145204464
3.23100394874
2.88214995714
2.45359939443
2.15507998889
2.16223572352
2.3238543715
2.43610916639
2.30571932992
1.86198914439
1.169501889
0.564998958767
1.07050832503
1.8519447982
2.33233943554
2.41356170136
2.09228386927
1.63244762758
1.74032580282
2.55787885165
3.5551441775
4.29063888221
4.54346455134
4.23075054414
3.41056087701
2.30428755313
1.20307916195
1.07818116712
1.75355644382
2.21017797438
2.21997792248
1.77987319923
1.04566025812
0.394405964334
0.926127010192
1.54937103335
1.86914589943
1.80189373023
1.34926447984
0.616301551069
0.276987752418
1.2071518021
2.01308215753
2.60783751679
2.91725301942
2.91740961666
2.6436250509
1.60937171784
1.18302127768
1.18120487795
1.51136026535
1.89217917101
2.18021587286
2.33481382338
2.34354941104
2.2754534159
2.16062097544
2.03642394618
1.94434388428
1.91811781072
1.92410622372
1.97087996046
1.99614712068
2.04996880716
2.0693156694
2.09030542723
2.10412812184
2.18390381881
2.2088489511
2.26610523777
2.34574095492
2.41347243631
2.46577299492
2.4515573792
2.40434342899
2.33675096078
2.14581159806
1.92749828928
1.61710813648
1.27946907165
1.00479916089
0.88086872584
1.00585937598
1.32594888956
1.67798365773
2.0326489832
2.37285912815
2.6652215906
2.91477077697
3.03860051602
3.09591011749
3.03170795279
2.87232155507
2.64353747896
2.33675552422
1.99652624769
1.35990028823
1.24644495031
1.28142081004
1.43662960029
1.55326388219
1.61989175088
1.72896695079
1.96347584626
2.32279949698
2.69595657643
2.90335934304
2.92513426852
2.73801276759
2.49097079326
2.41754949894
2.53699240114
2.77728514655
2.84882583556
2.64566714925
2.15952150136
1.60524898018
1.35844970026
1.69182358368
2.10591886459
2.2415123775
1.98613429329
1.36300741419
0.484101033802
0.472273529318
1.29863619623
1.81957187138
1.9861684935
1.75631238907
1.2421757849
0.735265241183
0.912387554328
1.39100421368
1.74633785922
1.80151193777
1.58352816856
1.16759751803
0.694608137589
0.601568961382
0.826589548101
0.990781678952
0.997001831088
0.851390914985
0.62319216318
0.478729409702
0.86242232368
1.12709252986
1.43672125377
1.61316762245
1.7741676038
1.84664119511
1.83527295199
1.76618266102
1.63660388441
1.49251254319
1.31339687032
1.13744735655
0.994126418853
0.756763917361
0.486694398205
0.361247531667
0.234468063863
0.309010592945
0.404871107576
0.480395337138
0.537575203513
0.514418983303
0.568010799729
0.663868885832
0.812537284093
1.00435998757
1.25768278117
1.57466215324
1.8686767565
2.15157952031
2.42386954204
2.62661249669
2.74861745945
2.86678914452
2.91117419238
2.95978534654
2.9761618975
2.99333101428
2.98542446411
2.96083785738
2.90633180092
2.78668686124
2.6000911093
2.28884276568
1.82719701495
1.21305133829
0.520549244821
0.57045108405
1.38108142398
0.0
0.0
0.0
0.0
0.0
0.0
0.0
0.0
0.0
1.14439169963e-15
0.0
0.0
0.0
0.0
0.0
0.0
0.0
0.0
6.68442777729e-16
0.0
0.0
2.52087255618e-15
0.0
0.0
0.0
0.0
0.0
0.0
0.0
0.0
0.0
0.0
0.0
2.58946281966e-15
0.0
0.0
0.0
0.0
0.0
0.0
0.0
0.0
1.35064460289e-15
0.0
0.0
2.23152066184e-15
0.0
0.0
0.0
0.0
0.0
0.0
0.0
0.0
0.0
0.0
0.0
4.74165647963e-15
0.0
0.0
0.0
0.0
0.0
0.0
0.0
0.0
1.69468189731e-15
0.0
0.0
6.68442777729e-16
0.0
0.0
0.0
0.0
0.0
0.0
0.0
0.0
0.0
0.0
0.0
2.77555756156e-16
0.0
0.0
0.0
0.0
0.0
0.0
0.0
0.0
5.51547356603e-15
0.0
0.0
6.66133814775e-16
0.0
0.0
2.30806365376
3.28814311677
1.36567159436
3.64992802957
1.53089990175
2.62680515065
0.121422556584
1.20882084055
4.19121930028
1.89749476344
2.86036383476
1.67133827209
2.35907858233
1.42352824595
0.555511388289
3.86750168251
3.29745147867
0.927465991846
1.19075308716
2.24128661987
0.937033146399
1.76781679223
2.27294114557
2.49114279363
1.22384120584
1.9041771752
3.38240256597
0.400150134946
1.24484634684
1.4303161211
2.9219822302
0.308919602306
0.608583482197
0.65219972779
3.29420216685
2.16329407679
1.17064218708
2.33040970121
1.80148806952
2.79185014508
3.22798198935
0.692378432077
1.49110131647
1.49297695497
0.502765074794
1.47220047598
1.99321128037
3.04405206335
1.67909680976
1.92491046916
1.22821608672
1.23607634143
2.25863966384
1.77240064944
3.65517904173
1.86177173431
2.58171677204
2.43909086402
0.813406199148
1.82262328134
2.45937325098
2.40877182983
1.64967121899
1.91747257807
4.04668001031
2.14101811392
2.21718351094
0.889489982601
0.396237014163
1.78242590982
3.65013088417
2.87397640886
1.60035068392
2.97187435995
1.86773485095
1.02418891408
0.0926545364079
1.39150687273
2.94400767586
3.50560203405
1.20601973435
2.47142453081
2.76634281956
2.58595084354
2.61345836784
1.80565193708
2.52934093524
1.72310473097
1.08657678153
1.78420076267
1.73454215686
3.85004297202
2.80561972393
2.04981792699
2.618162755
0.516746867822
1.18298821385
2.39553966602
0.905191189615
0.365030788979
2.05848119015
3.47195871172
0.978279689466
0.518588026659
0.507510891932
3.39025826241
1.33219852895
3.08675270741
1.20534303908
2.1002680427
3.0612277424
4.9022110391
2.54640753129
1.52747365291
3.94189239938
3.73676856869
1.89528345289
0.819122283065
1.39848926027
1.35207390788
3.46813904509
4.45278072428
0.73032331985
1.31975699903
0.330597910817
4.42110299101
2.0630660374
0.940021371076
1.03868560542
2.36049161064
3.56855703604
0.511584422065
1.4130378077
3.13620938257
3.4505057175
1.91717548112
1.07022695078
3.57896529351
3.25062967531
1.66618808803
3.17224802814
0.976376482618
1.07162487728
3.18385938621
1.61605971037
1.26397018376
2.02522334866
3.15075234745
2.64853725495
3.93181882982
3.11677986271
1.77795029583
3.4616323209
3.11262258808
0.285903633888
1.58843616386
4.74627563215
0.466536099442
1.51270113574
2.56253811444
2.94217363254
0.681703899025
2.99245586656
1.8133104086
2.6420842717
4.11994045375
0.904693443134
0.89015679382
3.10600489927
1.14503982369
1.22840954423
1.6826706242
1.23984441353
3.83856800325
3.42460412154
2.74687577546
0.462571729055
1.70988595269
5.23231305657
3.46483468469
1.33637319214
3.537344755
2.37390298835
0.512696890049
0.352698509391
1.36112591865
3.04249000347
2.32367665011
1.30655485163
1.1450112664
1.41257038155
3.23073013212
1.67938700338
2.13862596063
2.81632424245
0.898087166167
0.0744374742324
2.64903175423
1.19884390782
2.12280330069
2.27542606387
4.34279736911
2.30389325061
1.81313662211
3.20421590331
2.05104775903
2.71493862449
1.19408711889
2.34427743956
1.40679377929
0.547764661153
1.14069045695
1.16025809402
2.16078792663
1.60793098724
2.23876034299
0.453898608559
0.810194720984
1.49266043866
0.988985816553
2.72657932381
1.78505505432
1.73413457464
0.851658266818
3.00884108607
0.0943123174626
0.18249976049
1.61914086541
0.670601949776
1.71877424955
3.17249096538
0.835368942989
1.54966507477
3.25718749723
1.03171821744
2.4792448783
2.18201405671
1.65181965302
0.513060326269
3.75980226318
1.99964671853
1.14733973339
0.987966489784
3.03861746348
3.06833703237
1.42782847006
1.91023832319
4.39237640589
0.340282892737
2.0927560011
0.48170436565
3.01174587958
1.79907522853
0.759033341883
1.14409667651
3.29348922177
4.15971464352
1.6495296545
2.61637813328
1.73120904479
1.49034518489
2.81631167077
0.614408491581
2.18407249756
1.38860575816
0.952605789492
4.70121879755
2.73582622201
1.32952864233
1.51140901035
2.43249174802
0.491759420864
1.39097307796
1.09332453995
1.90244872475
2.84324803854
2.88916774558
1.65585114146
1.76803574995
1.89700774151
0.560686295895
1.50263168776
2.17795200691
1.40237702274
2.8228252089
1.78830116519
1.13175182531
1.2737863964
2.4704522946
1.25117533011
2.93224526599
4.19466140739
1.5051550038
1.52979181738
0.593856324008
2.57388066505
3.22186116447
1.86112824665
3.37046839929
3.12205585982
1.80728736201
1.23143120334
0.429889212341
2.92001924229
3.34649369674
2.25626231665
0.514460264912
1.32820317221
0.527064951251
1.38233441757
0.544238977446
0.506290547069
1.26746262879
2.15535593028
3.23144924803
2.6460670825
0.988380254586
2.06590698074
0.252425785465
2.46517900534
0.152396858621
2.07801386877
4.09568551995
1.62253056477
0.631886105508
3.88945905856
0.900257184165
0.43171033405
2.75378204136
4.20779917021
0.846482383153
0.732143327155
0.0824548211897
1.30544786495
2.99069462435
2.569165298
3.74005124743
2.32806168493
2.97130688127
1.90962798093
1.68176822854
3.67438043695
3.72785933507
1.36990190631
1.52904326762
2.036032639
1.49877908932
2.81158960445
0.331886969249
2.65533375738
3.34954032303
0.618186328666
2.8326604068
1.26250788446
1.00933726666
0.908245334863
1.15651070606
1.06395050776
3.28702697466
1.18140952563
1.20285457454
3.22366063152
1.00935286217
1.4712904092
1.9881332823
1.6592568647
2.87556014546
0.367504655746
3.32502041006
3.49439963462
0.476922909463
0.707456440736
3.19297999744
0.518343156478
1.63304309862
4.5384999356
0.890703287065
1.28658961453
2.64575740548
2.50198046357
1.77910930541
3.1148968541
0.660498749189
2.59216285639
1.22566858758
3.19356751963
4.57137422747
1.29361780874
2.13840615114
1.50866497833
3.53835259088
2.62382599457
1.8470634348
1.21115458709
1.06074006574
1.37167593028
0.98429167106
2.18908162789
1.76523017557
3.18980200445
2.08155155828
0.963075825722
2.04149344998
1.38857801509
1.55122743896
1.09976077714
2.57328856989
4.19341065814
1.90298235822
2.31990861451
0.920950083549
1.41693404602
1.76811825386
0.0812470186768
2.0142275513
3.57888397902
0.847478212636
2.66202350838
3.65672543152
0.768209221757
1.25569405386
3.46496187935
2.90222603318
1.92255889239
3.91606140496
1.74602842223
2.62203058669
0.882415421967
2.33271163179
2.27951033395
0.688698233545
4.05432014557
0.890277413041
1.21227732962
1.57227465666
3.36171920432
3.45971193107
1.25614648026
0.476901298243
0.722708077155
2.69376952136
2.06914088455
2.1258709704
0.87750173769
4.05804166815
2.11111075146
0.95101963583
1.78592058398
1.51862559131
2.99036831574
1.24359183774
3.60413296521
1.34383551648
2.32150761896
2.53154624212
3.24740305596
2.77733128714
0.775855109858
0.277144053832
1.04897047251
3.38489648554
2.59587107966
0.2498974616
1.17705562222
2.47557101721
1.72346921779
4.06051309856
0.87357813742
4.07262512226
3.31557609751
0.955658669088
1.18328962968
1.02849586748
1.0757020935
1.56014168189
1.77171159009
0.9303493168
1.23466627842
2.80648841061
3.5406885545
1.39973891096
2.82115616443
1.5611909447
2.34426498054
0.861594758357
2.04818126393
2.64425167127
0.386951429647
0.500223017227
0.923079899561
3.96766422292
3.17795416859
0.859356370327
2.49140932225
2.7189602186
1.37689592239
1.64200479169
1.27384748867
2.95014219692
1.80684381064
0.605291800386
2.74578864287
2.66020086994
1.0740286915
0.314941809621
1.13612417839
1.77251697817
2.74932647505
0.913791304832
2.38255136966
2.95176092456
1.13632896667
3.52830903757
2.77651230088
0.867769829147
0.658657157667
2.36771080571
0.970918569877
3.40847258837
2.14520980837
2.59804439565
1.22196759189
4.30586693101
3.07249149477
2.58762871009
1.73906551718
4.80087423852
2.52098699621
0.695333356951
0.798856595944
0.847811434794
1.00603778727
1.55044279417
2.41869568346
1.57656110735
1.23974711659
0.17615954528
0.953172821779
0.642230623635
1.6840163359
1.47735612061
1.20521013444
3.84169520629
1.3807497115
2.23448860986
1.82598414169
2.24281853884
3.23087077598
2.98790331605
1.49398614941
2.51058123616
3.49093110884
1.85198107584
1.01122656933
2.14625816925
3.12765379364
2.13115396572
2.46163549695
1.22089932397
3.07528465112
2.20712452676
2.81462104596
2.82940962201
0.862586369064
1.08183005308
2.78622339561
1.16452193976
3.12882837946
0.381014551432
2.3139609696
0.182120559128
1.59936505903
2.8191084812
3.40285379938
1.71544092413
1.30011973118
1.22373438719
2.59905893154
0.612523309196
0.751398041365
0.866075575618
2.93111186324
1.88358228463
3.27907062284
0.45305821405
1.82508906217
3.52160011543
4.89598493292
1.35584822183
0.666465471537
2.67213208999
2.44951133271
2.04113489032
3.34565282139
1.39535629504
0.222072546128
3.00381975678
2.00917338165
2.11618905111
0.906989230986
3.31211579596
3.5333692425
0.570993807286
0.955065469859
0.690714746908
2.56244032475
0.711112031729
1.70830276398
4.04883585581
2.14250859851
2.81461724565
1.940316749
2.75137875383
2.80566426526
0.386441660443
0.751765090253
2.15602396016
0.812316287436
1.40649494446
3.81687481004
4.14015981459
2.50494318331
1.17957411935
2.41380513672
1.13462817824
1.58133391071
4.14086270801
1.33832653756
1.87244542813
0.841780209487
3.10667553413
2.98903266195
2.72410556462
1.41244014905
3.86465023386
1.67244078354
1.80247795951
0.630315071924
1.10842243541
1.83089214286
1.90624312068
2.42443118307
1.60243565869
1.55619960785
2.60354951301
2.73230630868
1.2384563961
1.3807738659
3.56436366112
0.230403610432
1.38038852653
1.42366635206
0.318589051411
2.02261878267
2.78129741295
1.08618649118
1.15008508931
3.29648291807
0.595657292938
0.494483500889
1.29338104644
1.24942430821
1.52632665235
3.10418845982
3.38554994942
2.93816395035
3.09599275731
1.88923433005
0.519480796945
1.76455046382
3.03773310974
2.0361477187
2.12329098608
1.57902677309
3.34231827638
2.91328072404
1.54333362987
2.77096714491
2.29426956874
3.14965027571
1.58506006706
2.96411928244
3.95989050733
0.91107773242
3.10617122653
0.506188344248
0.965121874996
0.832451270888
3.32088079993
3.16324261763
1.76354096879
3.02139235073
1.45941404209
1.36869826023
0.567549286128
1.70119750014
0.547994667271
2.17925631831
1.07973953354
2.34177075612
0.212010051472
1.10165124123
3.2824249668
2.18293316865
2.84180292068
0.539421096238
2.07013384366
1.70921917399
3.22696433902
1.34279854999
3.84811680739
1.21450031693
1.81745793104
3.47105361909
2.05411869683
1.66837718
1.24195316941
0.196222449517
2.92317155978
0.638513388729
2.09074483814
1.41886438429
0.68565797397
3.17511368264
0.106403333737
1.01226165506
1.66150473582
1.85121634464
3.46984432393
1.25060114194
1.62779719905
3.78168870158
2.91100642414
2.60761415409
2.95984691554
1.74952309587
2.64390070492
3.04955171589
1.76239325713
0.523320197162
3.93628211474
3.35860859357
2.377072208
1.75317852843
1.92666427686
2.78191799306
0.92658533797
3.20051320877
1.55677072844
2.85567761133
0.699121438051
0.508328638092
2.53210519329
1.10462339805
3.15914451833
1.21350991806
1.16556561594
1.31698048301
0.855125132955
2.03217918084
0.404774717192
1.76723575807
2.9699838203
3.41061171044
2.88887089151
3.22893685211
0.835958846709
0.505210469887
3.57997579944
2.15760861148
1.43779465632
3.50904296883
2.78207411943
1.55868245137
3.93289052827
2.40633084967
0.331018147075
1.69586575572
4.70296772876
3.49557691959
2.84008813917
3.49395686667
1.51819643435
3.20738258412
1.22854750234
2.86163666357
2.37339310975
2.88176544144
2.75949995152
1.99456908594
0.644233039927
1.31955845459
1.07453212712
1.77003060405
0.594347512103
3.3376529636
2.29425607393
2.97718983857
1.43149362439
1.40409866096
0.28776287222
1.88865326399
4.92814711588
2.42381600987
2.64580582421
0.471620093826
2.15408923625
3.72632684292
1.2985437757
0.918710851306
0.909777568833
4.17740910034
1.56201499042
0.876806197541
0.446017122996
1.12543062129
1.64452416098
2.64746792343
1.214924461
2.69099044257
1.39558460283
1.54461311333
0.51809227146
3.93874122787
0.130946549036
1.46663227773
3.29818196007
2.39756201076
4.10037974524
1.79672099506
2.39951124485
3.12468599137
1.29506969465
1.85435804817
0.374523786629
3.74361429906
0.930583986303
1.21656068755
1.63041496535
1.88067856744
0.758531056416
1.92173285168
1.49250463733
2.7100709527
1.07599599085
0.767763824778
2.42716002395
1.29836401299
3.12580765326
0.816089852466
2.12189610018
1.79748098487
3.42363806958
1.50592069993
0.553705299482
1.57207434128
3.13176525905
1.24003927523
1.88254341946
1.73120431594
0.209006844882
3.40715543357
2.45659049672
0.37371452369
1.02018467246
2.9190206202
0.162309303488
0.874427105252
1.47202630376
0.900855722816
3.02669248503
2.81277607811
1.56217312646
0.697306258378
1.29190169795
2.551851515
2.82671981234
1.00182658395
2.32453518211
1.70420779383
2.5909708186
0.143784462258
2.43643697309
1.75666820787
2.3316641873
0.940313065997
2.5832370967
1.31376624459
2.60925883914
0.839672300947
2.77036515053
0.351300139554
1.39729722095
4.19998376075
2.40947779474
1.91877527196
2.51355506862
1.07415368719
0.873439150037
1.62070827594
2.1509151655
1.87800700578
0.143633751051
0.864162931956
1.36681821243
1.33449499148
4.41519947081
2.47164945421
3.58148089065
2.40850440772
0.252008029939
0.744452903491
0.332349248991
1.26359431535
3.11280536615
2.97132606944
2.52491111155
1.67201731123
0.356213576113
0.388278776706
2.18727844213
2.94543184377
1.35039692141
1.28214715441
0.195973696224
0.83452991904
3.09743813076
2.46651919731
1.79973940684
0.620823121655
1.21165971969
3.22572292168
1.53259239247
3.90290824612
2.34424909546
1.2613701072
3.35036539918
3.11959302426
0.574105683169
0.429128274829
0.58079430619
2.24766540011
2.9041487979
1.05723288354
0.725832723592
1.57109144213
3.1458080254
1.33729189303
1.44889877377
2.58132071887
1.1681053354
3.78616929132
0.296994395395
1.54145517579
0.793299714043
3.47989501466
1.20120182139
0.781866859443
2.74992667959
4.72795401936
0.900314188505
1.03914189639
1.40392069869
2.10142247146
1.05617377018
1.84300264172
2.64553295842
1.23628928592
1.67173888677
1.38643996073
2.9909888472
3.16615412444
2.42353970599
2.63251131215
1.27727238884
2.68412241459
0.855027068741
1.38622383735
0.494801079318
3.19998142854
1.19202959988
3.223190888
2.52100102936
3.10001534477
1.01793030285
3.00117735528
0.857366626517
1.99106558983
1.4235067883
1.91158961444
3.18107514328
2.25296291761
3.06117712328
2.71254706381
3.30851623506
1.3862028384
0.724023479677
1.59032700073
3.93732945414
3.37157685308
0.595410783003
1.59393440206
2.83166466428
1.01049145859
2.68773069965
1.36830412535
1.07372898654
3.08735005602
1.74054366106
2.5609979468
2.24759481375
1.65571454951
1.74202644475
2.44150261546
1.36543907171
3.3508309578
1.13550896865
1.0210076142
4.28554347836
2.6938729079
3.86026979735
1.62519687649
1.55184666881
2.34429652935
2.35520402926
0.931500535949
0.477386945788
3.96648051883
1.40625767145
3.67840009319
3.1778944793
1.22811383463
1.12441844511
1.29996875959
1.49531588254
1.57371120809
2.73213192536
0.816936068521
3.54762469479
0.960162205323
2.59165517413
1.34042395915
0.83627458528
3.78373228759
3.57881967293
2.35379479355
1.92020626716
1.40388292561
3.0939540439
3.89486247989
1.29460753511
2.44218997972
3.15998707045
3.69414321185
2.73511179141
1.39836138325
2.43889312145
0.17601797954
1.1122668001
1.24475416593
4.32906868594
2.54728063113
1.91870652762
1.51736063507
0.705609812075
2.97859927664
1.81692708759
1.57915071633
2.08916735685
0.825212530543
0.253538412369
0.747963085833
0.234933279139
1.07879644225
1.36072932385
3.46633231815
3.06476273911
2.66408984714
1.7332362127
0.350706597184
1.50307346196
1.29521913262
2.97993825465
2.11239653585
3.54647232067
2.63313612
0.60124055595
2.00197476187
1.05712128642
1.39197203648
2.50975190518
1.09524898904
2.39779030114
1.40827661806
1.44423315343
1.65712988946
2.71469653932
1.39498773154
1.07424792876
3.80569950322
1.7652102216
1.310269883
0.893490683938
3.87570954518
1.38475735791
2.11280361663
2.09157549993
0.794559684853
1.22074325799
1.88998544107
3.52374278097
1.08678032754
2.95496492946
1.78614454017
4.36103951588
2.190031434
1.64283626404
1.50648009419
1.67224446514
1.70980376304
1.28523640712
1.44396556108
2.36516724127
2.76451254705
2.94956853572
2.32199615115
1.76835385912
0.915456039834
3.17752860032
4.3856107954
0.541141293629
1.00141009291
2.59804020634
1.21636214794
3.91686306732
0.93097094695
1.41087544433
0.988649045034
2.75558089671
0.458633252215
1.4760163854
3.37845951357
2.78880534332
1.60621704187
2.61076276571
1.85331756477
3.46569865297
2.06747918239
1.39385617407
0.446065434063
1.13597739236
1.88106551728
0.878561283909
3.84349740876
2.08933390633
1.37962281137
0.794981523345
2.10289845449
1.21901506696
2.88058590863
2.57994396978
3.18913361648
1.30343031614
0.793102961623
0.617705386844
2.95070422275
1.87337006958
2.45262784372
1.16653432726
4.63560941811
1.74486329232
3.27466506238